------------------------------------------------------------
          Invoking FHI-aims ...

          When using FHI-aims, please cite the following reference:

            Volker Blum, Ralf Gehrke, Felix Hanke, Paula Havu,
            Ville Havu, Xinguo Ren, Karsten Reuter, and Matthias Scheffler,
            'Ab Initio Molecular Simulations with Numeric Atom-Centered Orbitals',
            Computer Physics Communications 180, 2175-2196 (2009)

          In addition, many other developments in FHI-aims are likely important for
          your particular application. If so, please cite them. A partial list of references
          is written at the end of this file. Thank you for giving credit to the authors
          of these developments.

          For general information about FHI-aims please find us at

            https://fhi-aims.org

          Online tutorials can be found at

            https://fhi-aims-club.gitlab.io/tutorials/tutorials-overview/

          For any questions about FHI-aims, please visit our slack channel at

            https://fhi-aims.slack.com

          and our main development and support site at

            https://aims-git.rz-berlin.mpg.de .

          The latter site, in particular, has a wiki to collect information, as well
          as an issue tracker to log discussions, suggest improvements, and report issues
          or bugs. https://aims-git.rz-berlin.mpg.de is also the main development site
          of the project and all new and updated code versions can be obtained there.
          Please send an email to aims-coordinators@fhi-berlin.mpg.de and we will add
          you to these sites. They are for you and everyone is welcome there.

------------------------------------------------------------



  Date     :  20250925, Time     :  064005.889
  Time zero on CPU 1             :   0.184362000000000E+00  s.
  Internal wall clock time zero  :           528014405.889  s.

  FHI-aims created a unique identifier for this run for later identification
  aims_uuid : F3C58797-4781-4E48-AF31-E4502AB8D197

  Build configuration of the current instance of FHI-aims
  -------------------------------------------------------
  FHI-aims version      : 230612
  Commit number         : 0c86b0d53
  CMake host system     : Linux-3.10.0-1160.80.1.el7.x86_64
  CMake version         : 3.24.2
  Fortran compiler      : /apps/compilers/intel/2018.2/compilers_and_libraries_2018/linux/mpi/intel64/bin/mpif90 (Intel) version 18.0.2.20180210
  Fortran compiler flags: -O3 -ip -fp-model precise
  C compiler            : /apps/compilers/intel/2018.2/compilers_and_libraries_2018/linux/bin/intel64/icc (Intel) version 18.0.2.20180210
  C compiler flags      : -O3 -ip -fp-model precise -std=gnu99
  HIP compiler          :
  HIP compiler flags    :
  HIP GPU arch          :
  ELPA2 kernel          : AVX2
  Using MPI
  Using ScaLAPACK
  Using LibXC
  Using i-PI
  Using RLSY
  Linking against: /apps/compilers/intel/2018.2/compilers_and_libraries_2018/linux/mkl/lib/intel64/libmkl_intel_lp64.so
                   /apps/compilers/intel/2018.2/compilers_and_libraries_2018/linux/mkl/lib/intel64/libmkl_intel_thread.so
                   /apps/compilers/intel/2018.2/compilers_and_libraries_2018/linux/mkl/lib/intel64/libmkl_core.so
                   /apps/compilers/intel/2018.2/compilers_and_libraries_2018/linux/mkl/lib/intel64/libmkl_blacs_intelmpi_lp64.so
                   /apps/compilers/intel/2018.2/compilers_and_libraries_2018/linux/mkl/lib/intel64/libmkl_scalapack_lp64.so
                   /usr/lib64/libpthread.so

  Using      128 parallel tasks.
  Task        0 on host cca9061 reporting.
  Task        1 on host cca9061 reporting.
  Task        2 on host cca9061 reporting.
  Task        3 on host cca9061 reporting.
  Task        4 on host cca9061 reporting.
  Task        5 on host cca9061 reporting.
  Task        6 on host cca9061 reporting.
  Task        7 on host cca9061 reporting.
  Task        8 on host cca9061 reporting.
  Task        9 on host cca9061 reporting.
  Task       10 on host cca9061 reporting.
  Task       11 on host cca9061 reporting.
  Task       12 on host cca9061 reporting.
  Task       13 on host cca9061 reporting.
  Task       14 on host cca9061 reporting.
  Task       15 on host cca9061 reporting.
  Task       16 on host cca9061 reporting.
  Task       17 on host cca9061 reporting.
  Task       18 on host cca9061 reporting.
  Task       19 on host cca9061 reporting.
  Task       20 on host cca9061 reporting.
  Task       21 on host cca9061 reporting.
  Task       22 on host cca9061 reporting.
  Task       23 on host cca9061 reporting.
  Task       24 on host cca9061 reporting.
  Task       25 on host cca9061 reporting.
  Task       26 on host cca9061 reporting.
  Task       27 on host cca9061 reporting.
  Task       28 on host cca9061 reporting.
  Task       29 on host cca9061 reporting.
  Task       30 on host cca9061 reporting.
  Task       31 on host cca9061 reporting.
  Task       32 on host cca9061 reporting.
  Task       33 on host cca9061 reporting.
  Task       34 on host cca9061 reporting.
  Task       35 on host cca9061 reporting.
  Task       36 on host cca9061 reporting.
  Task       37 on host cca9061 reporting.
  Task       38 on host cca9061 reporting.
  Task       39 on host cca9061 reporting.
  Task       40 on host cca9061 reporting.
  Task       41 on host cca9061 reporting.
  Task       42 on host cca9061 reporting.
  Task       43 on host cca9061 reporting.
  Task       44 on host cca9061 reporting.
  Task       45 on host cca9061 reporting.
  Task       46 on host cca9061 reporting.
  Task       47 on host cca9061 reporting.
  Task       48 on host cca9061 reporting.
  Task       49 on host cca9061 reporting.
  Task       50 on host cca9061 reporting.
  Task       51 on host cca9061 reporting.
  Task       52 on host cca9061 reporting.
  Task       53 on host cca9061 reporting.
  Task       54 on host cca9061 reporting.
  Task       55 on host cca9061 reporting.
  Task       56 on host cca9061 reporting.
  Task       57 on host cca9061 reporting.
  Task       58 on host cca9061 reporting.
  Task       59 on host cca9061 reporting.
  Task       60 on host cca9061 reporting.
  Task       61 on host cca9061 reporting.
  Task       62 on host cca9061 reporting.
  Task       63 on host cca9061 reporting.
  Task       64 on host cca9062 reporting.
  Task       65 on host cca9062 reporting.
  Task       66 on host cca9062 reporting.
  Task       67 on host cca9062 reporting.
  Task       68 on host cca9062 reporting.
  Task       69 on host cca9062 reporting.
  Task       70 on host cca9062 reporting.
  Task       71 on host cca9062 reporting.
  Task       72 on host cca9062 reporting.
  Task       73 on host cca9062 reporting.
  Task       74 on host cca9062 reporting.
  Task       75 on host cca9062 reporting.
  Task       76 on host cca9062 reporting.
  Task       77 on host cca9062 reporting.
  Task       78 on host cca9062 reporting.
  Task       79 on host cca9062 reporting.
  Task       80 on host cca9062 reporting.
  Task       81 on host cca9062 reporting.
  Task       82 on host cca9062 reporting.
  Task       83 on host cca9062 reporting.
  Task       84 on host cca9062 reporting.
  Task       85 on host cca9062 reporting.
  Task       86 on host cca9062 reporting.
  Task       87 on host cca9062 reporting.
  Task       88 on host cca9062 reporting.
  Task       89 on host cca9062 reporting.
  Task       90 on host cca9062 reporting.
  Task       91 on host cca9062 reporting.
  Task       92 on host cca9062 reporting.
  Task       93 on host cca9062 reporting.
  Task       94 on host cca9062 reporting.
  Task       95 on host cca9062 reporting.
  Task       96 on host cca9062 reporting.
  Task       97 on host cca9062 reporting.
  Task       98 on host cca9062 reporting.
  Task       99 on host cca9062 reporting.
  Task      100 on host cca9062 reporting.
  Task      101 on host cca9062 reporting.
  Task      102 on host cca9062 reporting.
  Task      103 on host cca9062 reporting.
  Task      104 on host cca9062 reporting.
  Task      105 on host cca9062 reporting.
  Task      106 on host cca9062 reporting.
  Task      107 on host cca9062 reporting.
  Task      108 on host cca9062 reporting.
  Task      109 on host cca9062 reporting.
  Task      110 on host cca9062 reporting.
  Task      111 on host cca9062 reporting.
  Task      112 on host cca9062 reporting.
  Task      113 on host cca9062 reporting.
  Task      114 on host cca9062 reporting.
  Task      115 on host cca9062 reporting.
  Task      116 on host cca9062 reporting.
  Task      117 on host cca9062 reporting.
  Task      118 on host cca9062 reporting.
  Task      119 on host cca9062 reporting.
  Task      120 on host cca9062 reporting.
  Task      121 on host cca9062 reporting.
  Task      122 on host cca9062 reporting.
  Task      123 on host cca9062 reporting.
  Task      124 on host cca9062 reporting.
  Task      125 on host cca9062 reporting.
  Task      126 on host cca9062 reporting.
  Task      127 on host cca9062 reporting.

  Obtaining array dimensions for all initial allocations:
  
  -----------------------------------------------------------------------
  Parsing control.in (first pass over file, find array dimensions only).
  The contents of control.in will be repeated verbatim below
  unless switched off by setting 'verbatim_writeout .false.' .
  in the first line of control.in .
  -----------------------------------------------------------------------
  
  #===============================================================================
  # FHI-aims file: ./control.in
  # Created using the Atomic Simulation Environment (ASE)
  # Thu Sep 25 06:40:04 2025
  #===============================================================================
  compute_forces                     .true.
  xc                                 pbe
  k_grid                             6 6 6
  relativistic                       atomic_zora scalar
  spin                               none
  compute_numerical_stress           .true.
  sc_accuracy_etot                   1e-06
  sc_accuracy_eev                    0.001
  sc_accuracy_rho                    1e-06
  sc_accuracy_forces                 0.0001
  #===============================================================================
  
  ################################################################################
  #
  #  FHI-aims code project
  #  VB, Fritz-Haber Institut, 2009
  #
  #  Suggested "light" defaults for Al atom (to be pasted into control.in file)
  #  Be sure to double-check any results obtained with these settings for post-processing,
  #  e.g., with the "tight" defaults and larger basis sets.
  #
  #  2020/09/08 Added f function to "light" after reinspection of Delta test outcomes.
  #             This was done for all of Al-Cl and is a tricky decision since it makes
  #             "light" calculations measurably more expensive for these elements.
  #             Nevertheless, outcomes for P, S, Cl (and to some extent, Si) appear
  #             to justify this choice.
  #
  ################################################################################
    species        Al
  #     global species definitions
      nucleus             13
      mass                26.9815386
  #
      l_hartree           4
  #
      cut_pot             3.5          1.5  1.0
      basis_dep_cutoff    1e-4
  #
      radial_base         41 5.0
      radial_multiplier   1
      angular_grids       specified
        division   0.6594  110
        division   0.8170  194
        division   0.9059  302
  #      division   1.0363  434
  #      division   1.1443  590
  #      division   1.2621  770
  #      division   2.8177  974
  #      outer_grid   974
        outer_grid   302
  ################################################################################
  #
  #  Definition of "minimal" basis
  #
  ################################################################################
  #     valence basis states
      valence      3  s   2.
      valence      3  p   1.
  #     ion occupancy
      ion_occ      3  s   1.
      ion_occ      2  p   6.
  ################################################################################
  #
  #  Suggested additional basis functions. For production calculations,
  #  uncomment them one after another (the most important basis functions are
  #  listed first).
  #
  #  Constructed for dimers: 2.0 A, 2.5 A, 3.0 A, 3.75 A, 4.5 A
  #
  ################################################################################
  #  "First tier" - improvements: -199.47 meV to -10.63 meV
       ionic 3 d auto
       ionic 3 p auto
       hydro 4 f 4.7
       ionic 3 s auto
  #  "Second tier" - improvements: -5.35 meV to -1.57 meV
  #     hydro 5 g 7
  #     hydro 3 d 6
  #     hydro 2 s 11.6
  #     hydro 2 p 0.9
  #  "Third tier" - improvements: -0.63 meV to -0.20 meV
  #     hydro 5 f 7.6
  #     hydro 4 p 7.2
  #     hydro 4 s 3.7
  #     hydro 4 d 7.6
  #  "Fourth tier" - improvements: -0.17 meV to -0.08 meV
  #     hydro 4 d 13.6
  #     hydro 5 g 11.2
  #     hydro 4 d 0.9
  #     hydro 1 s 0.4
  #     hydro 4 p 0.1
  #     hydro 5 f 9.8
  #  Further basis functions that fell out of the optimization - noise level...
  #     hydro 4 p 5
  
  
  -----------------------------------------------------------------------
  Completed first pass over input file control.in .
  -----------------------------------------------------------------------
  
  
  -----------------------------------------------------------------------
  Parsing geometry.in (first pass over file, find array dimensions only).
  The contents of geometry.in will be repeated verbatim below
  unless switched off by setting 'verbatim_writeout .false.' .
  in the first line of geometry.in .
  -----------------------------------------------------------------------
  
  #=======================================================
  # FHI-aims file: ./geometry.in
  # Created using the Atomic Simulation Environment (ASE)
  # Thu Sep 25 06:40:04 2025
  #=======================================================
  lattice_vector 4.1210000000000004 0.0000000000000000 0.0000000000000000
  lattice_vector 0.0000000000000000 4.1210000000000004 0.0000000000000000
  lattice_vector 0.0000000000000000 0.0000000000000000 4.1210000000000004
  atom_frac 0.0024265954865324 0.0000000000000000 0.0000000000000000 Al
  atom_frac 0.0000000000000000 0.4999999999999999 0.4999999999999999 Al
  atom_frac 0.4999999999999999 0.0000000000000000 0.4999999999999999 Al
  atom_frac 0.4999999999999999 0.4999999999999999 0.0000000000000000 Al
  
  -----------------------------------------------------------------------
  Completed first pass over input file geometry.in .
  -----------------------------------------------------------------------
  

  Basic array size parameters:
  | Number of species                 :        1
  | Number of atoms                   :        4
  | Number of lattice vectors         :        3
  | Max. basis fn. angular momentum   :        3
  | Max. atomic/ionic basis occupied n:        3
  | Max. number of basis fn. types    :        3
  | Max. radial fns per species/type  :        5
  | Max. logarithmic grid size        :     1340
  | Max. radial integration grid size :       41
  | Max. angular integration grid size:      302
  | Max. angular grid division number :        8
  | Radial grid for Hartree potential :     1340
  | Number of spin channels           :        1

------------------------------------------------------------
          Reading file control.in.
------------------------------------------------------------
  Forces will be computed.
  XC: Using PBE gradient-corrected functionals.
  Found k-point grid:         6         6         6
  Scalar relativistic treatment of kinetic energy: on-site free-atom approximation to ZORA.
  Spin treatment: No spin polarisation.
  Numerical stress will be computed using finite differences.
  Convergence accuracy of total energy:  0.1000E-05
  Convergence accuracy of sum of eigenvalues:  0.1000E-02
  Convergence accuracy of self-consistent charge density:  0.1000E-05
  Convergence accuracy of forces:  0.1000E-03
 
  Reading configuration options for species Al                  .
  | Found nuclear charge :  13.0000
  | Found atomic mass :    26.9815386000000      amu
  | Found l_max for Hartree potential  :   4
  | Found cutoff potl. onset [A], width [A], scale factor :    3.50000    1.50000    1.00000
  | Threshold for basis-dependent cutoff potential is   0.100000E-03
  | Found data for basic radial integration grid :    41 points, outermost radius =    5.000 A
  | Found multiplier for basic radial grid :   1
  | Found angular grid specification: user-specified.
  | Specified grid contains     4 separate shells.
  | Check grid settings after all constraints further below.
  | Found free-atom valence shell :  3 s   2.000
  | Found free-atom valence shell :  3 p   1.000
  | Found free-ion valence shell :  3 s   1.000
  | Found free-ion valence shell :  2 p   6.000
  | Found ionic basis function :  3 d , default cutoff radius.
  | Found ionic basis function :  3 p , default cutoff radius.
  | Found hydrogenic basis function :  4 f   4.700
  | Found ionic basis function :  3 s , default cutoff radius.
  Species Al                  : Missing cutoff potential type.
  Defaulting to exp(1/x)/(1-x)^2 type cutoff potential.
  Species Al: No 'logarithmic' tag. Using default grid for free atom:
  | Default logarithmic grid data [bohr] : 0.1000E-03 0.1000E+03 0.1012E+01
  | Will include ionic basis functions of  2.0-fold positive Al                   ion.
  Species Al: On-site basis accuracy parameter (for Gram-Schmidt orthonormalisation) not specified.
  Using default value basis_acc =  0.1000000E-03.
  Species Al                  : Using default innermost maximum threshold i_radial=  2 for radial functions.
  Species Al                  : Default cutoff onset for free atom density etc. : 0.35000000E+01 AA.
  Species Al                  : Basic radial grid will be enhanced according to radial_multiplier =   1, to contain    41 grid points.
 
  Finished reading input file 'control.in'.
 
------------------------------------------------------------


------------------------------------------------------------
          Reading geometry description geometry.in.
------------------------------------------------------------
  | The smallest distance between any two atoms is         2.90692458 AA.
  | The first atom of this pair is atom number                      1 .
  | The second atom of this pair is atom number                     3 .
  | Wigner-Seitz cell of the first atom image           0     0     0 .
  | (The Wigner-Seitz cell of the second atom is 0 0 0  by definition.)

  Symmetry information by spglib:
  | Precision set to  0.1E-04
  | Number of Operations  : 8
  | Space group           : 99
  | International         : P4mm
  | Schoenflies           : C4v^1
  Input structure read successfully.
  The structure contains        4 atoms,  and a total of         52.000 electrons.

  Input geometry:
  | Unit cell:
  |        4.12100000        0.00000000        0.00000000
  |        0.00000000        4.12100000        0.00000000
  |        0.00000000        0.00000000        4.12100000
  | Atomic structure:
  |       Atom                x [A]            y [A]            z [A]
  |    1: Species Al            0.01000000        0.00000000        0.00000000
  |    2: Species Al            0.00000000        2.06050000        2.06050000
  |    3: Species Al            2.06050000        0.00000000        2.06050000
  |    4: Species Al            2.06050000        2.06050000        0.00000000

  Lattice parameters for 3D lattice (in Angstroms) :     4.121000    4.121000    4.121000
  Angle(s) between unit vectors (in degrees)       :    90.000000   90.000000   90.000000


  Quantities derived from the lattice vectors (in Angstrom^-1):
  | Reciprocal lattice vector 1:  1.524675  0.000000  0.000000
  | Reciprocal lattice vector 2:  0.000000  1.524675  0.000000
  | Reciprocal lattice vector 3:  0.000000  0.000000  1.524675
  | Unit cell volume                               :   0.699855E+02  Angstrom^3

  Fractional coordinates:
                         L1                L2                L3
       atom_frac         0.00242660        0.00000000        0.00000000  Al
       atom_frac         0.00000000        0.50000000        0.50000000  Al
       atom_frac         0.50000000        0.00000000        0.50000000  Al
       atom_frac         0.50000000        0.50000000        0.00000000  Al

 
  Finished reading input file 'geometry.in'.
 

 
  Consistency checks for stacksize environment parameter are next.
 
  | Maximum stacksize for task 0: unlimited
  | Maximum stacksize for task 1: unlimited
  | Maximum stacksize for task 2: unlimited
  | Maximum stacksize for task 3: unlimited
  | Maximum stacksize for task 4: unlimited
  | Maximum stacksize for task 5: unlimited
  | Maximum stacksize for task 6: unlimited
  | Maximum stacksize for task 7: unlimited
  | Maximum stacksize for task 8: unlimited
  | Maximum stacksize for task 9: unlimited
  | Maximum stacksize for task 10: unlimited
  | Maximum stacksize for task 11: unlimited
  | Maximum stacksize for task 12: unlimited
  | Maximum stacksize for task 13: unlimited
  | Maximum stacksize for task 14: unlimited
  | Maximum stacksize for task 15: unlimited
  | Maximum stacksize for task 16: unlimited
  | Maximum stacksize for task 17: unlimited
  | Maximum stacksize for task 18: unlimited
  | Maximum stacksize for task 19: unlimited
  | Maximum stacksize for task 20: unlimited
  | Maximum stacksize for task 21: unlimited
  | Maximum stacksize for task 22: unlimited
  | Maximum stacksize for task 23: unlimited
  | Maximum stacksize for task 24: unlimited
  | Maximum stacksize for task 25: unlimited
  | Maximum stacksize for task 26: unlimited
  | Maximum stacksize for task 27: unlimited
  | Maximum stacksize for task 28: unlimited
  | Maximum stacksize for task 29: unlimited
  | Maximum stacksize for task 30: unlimited
  | Maximum stacksize for task 31: unlimited
  | Maximum stacksize for task 32: unlimited
  | Maximum stacksize for task 33: unlimited
  | Maximum stacksize for task 34: unlimited
  | Maximum stacksize for task 35: unlimited
  | Maximum stacksize for task 36: unlimited
  | Maximum stacksize for task 37: unlimited
  | Maximum stacksize for task 38: unlimited
  | Maximum stacksize for task 39: unlimited
  | Maximum stacksize for task 40: unlimited
  | Maximum stacksize for task 41: unlimited
  | Maximum stacksize for task 42: unlimited
  | Maximum stacksize for task 43: unlimited
  | Maximum stacksize for task 44: unlimited
  | Maximum stacksize for task 45: unlimited
  | Maximum stacksize for task 46: unlimited
  | Maximum stacksize for task 47: unlimited
  | Maximum stacksize for task 48: unlimited
  | Maximum stacksize for task 49: unlimited
  | Maximum stacksize for task 50: unlimited
  | Maximum stacksize for task 51: unlimited
  | Maximum stacksize for task 52: unlimited
  | Maximum stacksize for task 53: unlimited
  | Maximum stacksize for task 54: unlimited
  | Maximum stacksize for task 55: unlimited
  | Maximum stacksize for task 56: unlimited
  | Maximum stacksize for task 57: unlimited
  | Maximum stacksize for task 58: unlimited
  | Maximum stacksize for task 59: unlimited
  | Maximum stacksize for task 60: unlimited
  | Maximum stacksize for task 61: unlimited
  | Maximum stacksize for task 62: unlimited
  | Maximum stacksize for task 63: unlimited
  | Maximum stacksize for task 64: unlimited
  | Maximum stacksize for task 65: unlimited
  | Maximum stacksize for task 66: unlimited
  | Maximum stacksize for task 67: unlimited
  | Maximum stacksize for task 68: unlimited
  | Maximum stacksize for task 69: unlimited
  | Maximum stacksize for task 70: unlimited
  | Maximum stacksize for task 71: unlimited
  | Maximum stacksize for task 72: unlimited
  | Maximum stacksize for task 73: unlimited
  | Maximum stacksize for task 74: unlimited
  | Maximum stacksize for task 75: unlimited
  | Maximum stacksize for task 76: unlimited
  | Maximum stacksize for task 77: unlimited
  | Maximum stacksize for task 78: unlimited
  | Maximum stacksize for task 79: unlimited
  | Maximum stacksize for task 80: unlimited
  | Maximum stacksize for task 81: unlimited
  | Maximum stacksize for task 82: unlimited
  | Maximum stacksize for task 83: unlimited
  | Maximum stacksize for task 84: unlimited
  | Maximum stacksize for task 85: unlimited
  | Maximum stacksize for task 86: unlimited
  | Maximum stacksize for task 87: unlimited
  | Maximum stacksize for task 88: unlimited
  | Maximum stacksize for task 89: unlimited
  | Maximum stacksize for task 90: unlimited
  | Maximum stacksize for task 91: unlimited
  | Maximum stacksize for task 92: unlimited
  | Maximum stacksize for task 93: unlimited
  | Maximum stacksize for task 94: unlimited
  | Maximum stacksize for task 95: unlimited
  | Maximum stacksize for task 96: unlimited
  | Maximum stacksize for task 97: unlimited
  | Maximum stacksize for task 98: unlimited
  | Maximum stacksize for task 99: unlimited
  | Maximum stacksize for task 100: unlimited
  | Maximum stacksize for task 101: unlimited
  | Maximum stacksize for task 102: unlimited
  | Maximum stacksize for task 103: unlimited
  | Maximum stacksize for task 104: unlimited
  | Maximum stacksize for task 105: unlimited
  | Maximum stacksize for task 106: unlimited
  | Maximum stacksize for task 107: unlimited
  | Maximum stacksize for task 108: unlimited
  | Maximum stacksize for task 109: unlimited
  | Maximum stacksize for task 110: unlimited
  | Maximum stacksize for task 111: unlimited
  | Maximum stacksize for task 112: unlimited
  | Maximum stacksize for task 113: unlimited
  | Maximum stacksize for task 114: unlimited
  | Maximum stacksize for task 115: unlimited
  | Maximum stacksize for task 116: unlimited
  | Maximum stacksize for task 117: unlimited
  | Maximum stacksize for task 118: unlimited
  | Maximum stacksize for task 119: unlimited
  | Maximum stacksize for task 120: unlimited
  | Maximum stacksize for task 121: unlimited
  | Maximum stacksize for task 122: unlimited
  | Maximum stacksize for task 123: unlimited
  | Maximum stacksize for task 124: unlimited
  | Maximum stacksize for task 125: unlimited
  | Maximum stacksize for task 126: unlimited
  | Maximum stacksize for task 127: unlimited
  | Current stacksize for task 0: unlimited
  | Current stacksize for task 1: unlimited
  | Current stacksize for task 2: unlimited
  | Current stacksize for task 3: unlimited
  | Current stacksize for task 4: unlimited
  | Current stacksize for task 5: unlimited
  | Current stacksize for task 6: unlimited
  | Current stacksize for task 7: unlimited
  | Current stacksize for task 8: unlimited
  | Current stacksize for task 9: unlimited
  | Current stacksize for task 10: unlimited
  | Current stacksize for task 11: unlimited
  | Current stacksize for task 12: unlimited
  | Current stacksize for task 13: unlimited
  | Current stacksize for task 14: unlimited
  | Current stacksize for task 15: unlimited
  | Current stacksize for task 16: unlimited
  | Current stacksize for task 17: unlimited
  | Current stacksize for task 18: unlimited
  | Current stacksize for task 19: unlimited
  | Current stacksize for task 20: unlimited
  | Current stacksize for task 21: unlimited
  | Current stacksize for task 22: unlimited
  | Current stacksize for task 23: unlimited
  | Current stacksize for task 24: unlimited
  | Current stacksize for task 25: unlimited
  | Current stacksize for task 26: unlimited
  | Current stacksize for task 27: unlimited
  | Current stacksize for task 28: unlimited
  | Current stacksize for task 29: unlimited
  | Current stacksize for task 30: unlimited
  | Current stacksize for task 31: unlimited
  | Current stacksize for task 32: unlimited
  | Current stacksize for task 33: unlimited
  | Current stacksize for task 34: unlimited
  | Current stacksize for task 35: unlimited
  | Current stacksize for task 36: unlimited
  | Current stacksize for task 37: unlimited
  | Current stacksize for task 38: unlimited
  | Current stacksize for task 39: unlimited
  | Current stacksize for task 40: unlimited
  | Current stacksize for task 41: unlimited
  | Current stacksize for task 42: unlimited
  | Current stacksize for task 43: unlimited
  | Current stacksize for task 44: unlimited
  | Current stacksize for task 45: unlimited
  | Current stacksize for task 46: unlimited
  | Current stacksize for task 47: unlimited
  | Current stacksize for task 48: unlimited
  | Current stacksize for task 49: unlimited
  | Current stacksize for task 50: unlimited
  | Current stacksize for task 51: unlimited
  | Current stacksize for task 52: unlimited
  | Current stacksize for task 53: unlimited
  | Current stacksize for task 54: unlimited
  | Current stacksize for task 55: unlimited
  | Current stacksize for task 56: unlimited
  | Current stacksize for task 57: unlimited
  | Current stacksize for task 58: unlimited
  | Current stacksize for task 59: unlimited
  | Current stacksize for task 60: unlimited
  | Current stacksize for task 61: unlimited
  | Current stacksize for task 62: unlimited
  | Current stacksize for task 63: unlimited
  | Current stacksize for task 64: unlimited
  | Current stacksize for task 65: unlimited
  | Current stacksize for task 66: unlimited
  | Current stacksize for task 67: unlimited
  | Current stacksize for task 68: unlimited
  | Current stacksize for task 69: unlimited
  | Current stacksize for task 70: unlimited
  | Current stacksize for task 71: unlimited
  | Current stacksize for task 72: unlimited
  | Current stacksize for task 73: unlimited
  | Current stacksize for task 74: unlimited
  | Current stacksize for task 75: unlimited
  | Current stacksize for task 76: unlimited
  | Current stacksize for task 77: unlimited
  | Current stacksize for task 78: unlimited
  | Current stacksize for task 79: unlimited
  | Current stacksize for task 80: unlimited
  | Current stacksize for task 81: unlimited
  | Current stacksize for task 82: unlimited
  | Current stacksize for task 83: unlimited
  | Current stacksize for task 84: unlimited
  | Current stacksize for task 85: unlimited
  | Current stacksize for task 86: unlimited
  | Current stacksize for task 87: unlimited
  | Current stacksize for task 88: unlimited
  | Current stacksize for task 89: unlimited
  | Current stacksize for task 90: unlimited
  | Current stacksize for task 91: unlimited
  | Current stacksize for task 92: unlimited
  | Current stacksize for task 93: unlimited
  | Current stacksize for task 94: unlimited
  | Current stacksize for task 95: unlimited
  | Current stacksize for task 96: unlimited
  | Current stacksize for task 97: unlimited
  | Current stacksize for task 98: unlimited
  | Current stacksize for task 99: unlimited
  | Current stacksize for task 100: unlimited
  | Current stacksize for task 101: unlimited
  | Current stacksize for task 102: unlimited
  | Current stacksize for task 103: unlimited
  | Current stacksize for task 104: unlimited
  | Current stacksize for task 105: unlimited
  | Current stacksize for task 106: unlimited
  | Current stacksize for task 107: unlimited
  | Current stacksize for task 108: unlimited
  | Current stacksize for task 109: unlimited
  | Current stacksize for task 110: unlimited
  | Current stacksize for task 111: unlimited
  | Current stacksize for task 112: unlimited
  | Current stacksize for task 113: unlimited
  | Current stacksize for task 114: unlimited
  | Current stacksize for task 115: unlimited
  | Current stacksize for task 116: unlimited
  | Current stacksize for task 117: unlimited
  | Current stacksize for task 118: unlimited
  | Current stacksize for task 119: unlimited
  | Current stacksize for task 120: unlimited
  | Current stacksize for task 121: unlimited
  | Current stacksize for task 122: unlimited
  | Current stacksize for task 123: unlimited
  | Current stacksize for task 124: unlimited
  | Current stacksize for task 125: unlimited
  | Current stacksize for task 126: unlimited
  | Current stacksize for task 127: unlimited
 
  Consistency checks for the contents of control.in are next.
 
  MPI_IN_PLACE appears to work with this MPI implementation.
  | Keeping use_mpi_in_place .true. (see manual).
  Target number of points in a grid batch is not set. Defaulting to  100
  Method for grid partitioning is not set. Defaulting to parallel hash+maxmin partitioning.
  Batch size limit is not set. Defaulting to    200
  By default, will store active basis functions for each batch.
  If in need of memory, prune_basis_once .false. can be used to disable this option.
  communication_type for Hartree potential was not specified.
  Defaulting to calc_hartree .
  Defaulting to Pulay charge density mixer.
  Pulay mixer: Number of relevant iterations not set.
  Defaulting to    8 iterations.
  Pulay mixer: Number of initial linear mixing iterations not set.
  Defaulting to    0 iterations.
  Work space size for distributed Hartree potential not set.
  Defaulting to   0.200000E+03 MB.
  Mixing parameter for charge density mixing has not been set.
  Using default: charge_mix_param =     0.0500.
  The mixing parameter will be adjusted in iteration number     2 of the first full s.c.f. cycle only.
  Algorithm-dependent basis array size parameters:
  | n_max_pulay                         :        8
  Maximum number of self-consistency iterations not provided.
  Presetting  1000 iterations.
  Presetting      1001 iterations before the initial mixing cycle
  is restarted anyway using the sc_init_iter criterion / keyword.
  Presetting a factor      1.000 between actual scf density residual
  and density convergence criterion sc_accuracy_rho below which sc_init_iter
  takes no effect.
  Geometry relaxation not requested: no relaxation will be performed.
  No scaling factor delta for numerical stress given. Defaulting to   0.100000E-03.
  Forces evaluation will include force correction term due to incomplete self-consistency (default).
  Handling of forces: Unphysical translation and rotation will be removed from forces.
  No accuracy limit for integral partition fn. given. Defaulting to  0.1000E-14.
  No threshold value for u(r) in integrations given. Defaulting to  0.1000E-05.
  No occupation type (smearing scheme) given. Defaulting to Gaussian broadening, width =  0.1000E-01 eV.
  The width will be adjusted in iteration number     2 of the first full s.c.f. cycle only.
  S.C.F. convergence parameters will be adjusted in iteration number     2 of the first full s.c.f. cycle only.
  No accuracy for occupation numbers given. Defaulting to  0.1000E-12.
  No threshold value for occupation numbers given. Defaulting to  0.0000E+00.
  No accuracy for fermi level given. Defaulting to  0.1000E-19.
  Maximum # of iterations to find E_F not set. Defaulting to  200.
  Preferred method for the eigenvalue solver ('KS_method') not specified in 'control.in'.
  Defaulting to serial version, LAPACK (via ELSI), since more k-points than CPUs available.
  Will not use alltoall communication since running on < 1024 CPUs.
  Threshold for basis singularities not set.
  Default threshold for basis singularities:  0.1000E-04
  partition_type (choice of integration weights) for integrals was not specified.
  | Using a version of the partition function of Stratmann and coworkers ('stratmann_sparse').
  | At each grid point, the set of atoms used to build the partition table is smoothly restricted to
  | only those atoms whose free-atom density would be non-zero at that grid point.
  Partitioning for Hartree potential was not defined. Using partition_type for integrals.
  | Adjusted default value of keyword multip_moments_threshold to:       0.10000000E-11
  | This value may affect high angular momentum components of the Hartree potential in periodic systems.
  Angular momentum expansion for Kerker preconditioner not set explicitly.
  | Using default value of   0
  No explicit requirement for turning off preconditioner.
  | By default, it will be turned off when the charge convergence reaches
  | sc_accuracy_rho  =   0.100000E-05
  | sc_accuracy_eev  =   0.100000E-02
  | sc_accuracy_etot =   0.100000E-05
  No special mixing parameter while Kerker preconditioner is on.
  Using default: charge_mix_param =     0.0500.
  No q(lm)/r^(l+1) cutoff set for long-range Hartree potential.
  | Using default value of  0.100000E-09 .
  | Verify using the multipole_threshold keyword.
  Defaulting to new monopole extrapolation.
  Density update method: automatic selection selected.
  Using density matrix based charge density update.
  Using density matrix based charge density update.
  Using packed matrix style: index .
  Defaulting to use time-reversal symmetry for k-point grid.
  Charge integration errors on the 3D integration grid will be compensated
  by explicit normalization and distribution of residual charges.
  Use the "compensate_multipole_errors" flag to change this behaviour.
  Set 'collect_eigenvectors' to be '.true.' for all serial calculations. This is mandatory.
  Set 'collect_eigenvectors' to be '.true.' for KS_method lapack_fast and serial.
 
  Consistency checks for the contents of geometry.in are next.
 

  Range separation radius for Ewald summation (hartree_convergence_parameter):      3.69952186 bohr.
  Number of empty states per atom not set in control.in - providing a guess from actual geometry.
  | Total number of empty states used during s.c.f. cycle:       12
  If you use a very high smearing, use empty_states (per atom!) in control.in to increase this value.

  Structure-dependent array size parameters: 
  | Maximum number of distinct radial functions  :        9
  | Maximum number of basis functions            :      100
  | Number of Kohn-Sham states (occupied + empty):       38
------------------------------------------------------------
  After read_input_data [GB]:    231.76

  Performing system and environment tests:
  *** Environment variable OMP_NUM_THREADS is not set
  *** For performance reasons you might want to set it to 1
  | Checking for ScaLAPACK...
  | Testing pdtran()...
  | All pdtran() tests passed.
  After prepare_system [GB]:    231.63

------------------------------------------------------------
          Preparing all fixed parts of the calculation.
------------------------------------------------------------
  Determining machine precision:
    2.225073858507201E-308
  Setting up grids for atomic and cluster calculations.

  Creating wave function, potential, and density for free atoms.
  Runtime choices for atomic solver:
  | atomic solver xc        : PBE
  | compute density gradient: 1
  | compute kinetic density : F

  Species: Al

  List of occupied orbitals and eigenvalues:
    n    l              occ      energy [Ha]    energy [eV]
    1    0           2.0000       -55.621123     -1513.5278
    2    0           2.0000        -3.957030      -107.6763
    3    0           2.0000        -0.272233        -7.4078
    2    1           6.0000        -2.540949       -69.1427
    3    1           1.0000        -0.083300        -2.2667


  Adding cutoff potential to free-atom effective potential.
  Creating fixed part of basis set: Ionic, confined, hydrogenic.
 
  Al                   ion:

  List of free ionic orbitals and eigenvalues:
    n    l      energy [Ha]    energy [eV]
    1    0       -56.418846     -1535.2349
    2    0        -4.732717      -128.7838
    3    0        -0.872690       -23.7471
    2    1        -3.317230       -90.2664


  List of ionic basis orbitals and eigenvalues:
    n    l      energy [Ha]    energy [eV]    outer radius [A]
    3    2        -0.346815        -9.4373       4.594041
    3    1        -0.631870       -17.1940       4.538221
    3    0        -0.872657       -23.7462       4.538221

 
  Al                   hydrogenic:
 
  List of hydrogenic basis orbitals: 
    n    l      effective z      eigenvalue [eV]  inner max. [A]     outer max. [A]     outer radius [A]   
    4    3         4.700000       -18.6215           1.770410           1.770410           4.594041
 
  Creating atomic-like basis functions for current effective potential.

  Species Al                  :

  List of atomic basis orbitals and eigenvalues:
    n    l      energy [Ha]    energy [eV]    outer radius [A]
    1    0       -55.621123     -1513.5278       0.850197
    2    0        -3.957030      -107.6763       3.144911
    3    0        -0.272233        -7.4078       4.594041
    2    1        -2.540949       -69.1427       3.731966
    3    1        -0.083300        -2.2667       4.594041

  Assembling full basis from fixed parts.
  | Species Al :   atomic orbital   1 s accepted.
  | Species Al :   atomic orbital   2 s accepted.
  | Species Al :    ionic orbital   3 s accepted.
  | Species Al :   atomic orbital   3 s accepted.
  | Species Al :   atomic orbital   2 p accepted.
  | Species Al :    ionic orbital   3 p accepted.
  | Species Al :   atomic orbital   3 p accepted.
  | Species Al :    ionic orbital   3 d accepted.
  | Species Al :    hydro orbital   4 f accepted.
 
  Basis size parameters after reduction:
  | Total number of radial functions:        9
  | Total number of basis functions :      100
 
  Per-task memory consumption for arrays in subroutine allocate_ext:
  |           3.090072MB.
  Testing on-site integration grid accuracy.
  |  Species  Function  <phi|h_atom|phi> (log., in eV)  <phi|h_atom|phi> (rad., in eV)
           1        1              -1513.5277717935              -1513.5271881332
           1        2               -107.6762691836               -107.6762662489
           1        3                 -6.9467474784                 -6.9471269649
           1        4                  5.5771951849                  5.4862107220 ***
           1        5                -69.1427313144                -69.1427312731
           1        6                 -1.5197375330                 -1.5230432022
           1        7                  6.8210948310                  6.5529872240 ***
           1        8                  4.3216540965                  4.2851170187 ***
           1        9                 12.3183880433                 12.2660593802 ***
 * Note: Onsite integrals marked "***" above are less accurate than
 * onsite_accuracy_threshold =    0.03000 eV. Usually, this is harmless.
 * When in doubt, tighten the "radial" and/or "radial_multiplier" flags to check.

  Preparing densities etc. for the partition functions (integrals / Hartree potential).

  Preparations completed.
  max(cpu_time)          :      0.126 s.
  Wall clock time (cpu1) :      0.129 s.
------------------------------------------------------------
  After prepare_scf [GB]:    231.04

  Initializing index lists of integration centers etc. from given atomic structure:
  Mapping all atomic coordinates to central unit cell.

  Initializing the k-points
  Using symmetry for reducing the k-points
  | k-points reduced from:      216 to      112
  | Number of k-points                             :       112
  The eigenvectors in the calculations are COMPLEX.
  | K-points in task   0:         0
  | K-points in task   1:         1
  | K-points in task   2:         1
  | K-points in task   3:         1
  | K-points in task   4:         1
  | K-points in task   5:         1
  | K-points in task   6:         1
  | K-points in task   7:         1
  | K-points in task   8:         1
  | K-points in task   9:         1
  | K-points in task  10:         1
  | K-points in task  11:         1
  | K-points in task  12:         1
  | K-points in task  13:         1
  | K-points in task  14:         1
  | K-points in task  15:         1
  | K-points in task  16:         1
  | K-points in task  17:         1
  | K-points in task  18:         1
  | K-points in task  19:         1
  | K-points in task  20:         1
  | K-points in task  21:         1
  | K-points in task  22:         1
  | K-points in task  23:         1
  | K-points in task  24:         1
  | K-points in task  25:         1
  | K-points in task  26:         1
  | K-points in task  27:         1
  | K-points in task  28:         1
  | K-points in task  29:         1
  | K-points in task  30:         1
  | K-points in task  31:         1
  | K-points in task  32:         1
  | K-points in task  33:         1
  | K-points in task  34:         1
  | K-points in task  35:         1
  | K-points in task  36:         1
  | K-points in task  37:         1
  | K-points in task  38:         1
  | K-points in task  39:         1
  | K-points in task  40:         1
  | K-points in task  41:         1
  | K-points in task  42:         1
  | K-points in task  43:         1
  | K-points in task  44:         1
  | K-points in task  45:         1
  | K-points in task  46:         1
  | K-points in task  47:         1
  | K-points in task  48:         1
  | K-points in task  49:         1
  | K-points in task  50:         1
  | K-points in task  51:         1
  | K-points in task  52:         1
  | K-points in task  53:         1
  | K-points in task  54:         1
  | K-points in task  55:         1
  | K-points in task  56:         1
  | K-points in task  57:         1
  | K-points in task  58:         1
  | K-points in task  59:         1
  | K-points in task  60:         1
  | K-points in task  61:         1
  | K-points in task  62:         1
  | K-points in task  63:         1
  | K-points in task  64:         1
  | K-points in task  65:         1
  | K-points in task  66:         1
  | K-points in task  67:         1
  | K-points in task  68:         1
  | K-points in task  69:         1
  | K-points in task  70:         1
  | K-points in task  71:         1
  | K-points in task  72:         1
  | K-points in task  73:         1
  | K-points in task  74:         1
  | K-points in task  75:         1
  | K-points in task  76:         1
  | K-points in task  77:         1
  | K-points in task  78:         1
  | K-points in task  79:         1
  | K-points in task  80:         1
  | K-points in task  81:         1
  | K-points in task  82:         1
  | K-points in task  83:         1
  | K-points in task  84:         1
  | K-points in task  85:         1
  | K-points in task  86:         1
  | K-points in task  87:         1
  | K-points in task  88:         1
  | K-points in task  89:         1
  | K-points in task  90:         1
  | K-points in task  91:         1
  | K-points in task  92:         1
  | K-points in task  93:         1
  | K-points in task  94:         1
  | K-points in task  95:         1
  | K-points in task  96:         1
  | K-points in task  97:         1
  | K-points in task  98:         1
  | K-points in task  99:         1
  | K-points in task 100:         1
  | K-points in task 101:         1
  | K-points in task 102:         1
  | K-points in task 103:         1
  | K-points in task 104:         1
  | K-points in task 105:         1
  | K-points in task 106:         1
  | K-points in task 107:         1
  | K-points in task 108:         1
  | K-points in task 109:         1
  | K-points in task 110:         1
  | K-points in task 111:         1
  | K-points in task 112:         1
  | K-points in task 113:         0
  | K-points in task 114:         0
  | K-points in task 115:         0
  | K-points in task 116:         0
  | K-points in task 117:         0
  | K-points in task 118:         0
  | K-points in task 119:         0
  | K-points in task 120:         0
  | K-points in task 121:         0
  | K-points in task 122:         0
  | K-points in task 123:         0
  | K-points in task 124:         0
  | K-points in task 125:         0
  | K-points in task 126:         0
  | K-points in task 127:         0
  | Number of basis functions in the Hamiltonian integrals :      3029
  | Number of basis functions in a single unit cell        :       100
  | Number of centers in hartree potential         :       868
  | Number of centers in hartree multipole         :       444
  | Number of centers in electron density summation:       288
  | Number of centers in basis integrals           :       324
  | Number of centers in integrals                 :       135
  | Number of centers in hamiltonian               :       288
  | Consuming        164 KiB for k_phase.
  | Number of super-cells (origin) [n_cells]                     :         729
  | Number of super-cells (after PM_index) [n_cells]             :          94
  | Number of super-cells in hamiltonian [n_cells_in_hamiltonian]:          94
  | Size of matrix packed + index [n_hamiltonian_matrix_size] :      224229
  After initialize_bc_dependent_lists [GB]:    230.85

------------------------------------------------------------
          Begin self-consistency loop: Initialization.

          Date     :  20250925, Time     :  064006.705
------------------------------------------------------------
  Available memory per node after initialize_hartree_non_periodic_ewald [GB]:    230.85
  | Estimated reciprocal-space cutoff momentum G_max:         2.52942099 bohr^-1 .
  | Reciprocal lattice points for long-range Hartree potential:     122
  Available memory per node after initialize_recip_hartree_potential [GB]:    230.85
  Available memory per node after initialize_scalapack [GB]:    230.85
  Available memory per node after aims_elsi_init_scf [GB]:    230.85
  Available memory per node after initialize_fixed_grids [GB]:    230.85
  Partitioning the integration grid into batches with parallel hashing+maxmin method.
  | Number of batches:      324
  | Maximal batch size:     179
  | Minimal batch size:      59
  | Average batch size:      93.309
  | Standard deviation of batch sizes:      23.246

  Integration load balanced across   128 MPI tasks.
  Work distribution over tasks is as follows:
  Task     0 has        244 integration points.
  Task     1 has        221 integration points.
  Task     2 has        196 integration points.
  Task     3 has        193 integration points.
  Task     4 has        281 integration points.
  Task     5 has        202 integration points.
  Task     6 has        249 integration points.
  Task     7 has        204 integration points.
  Task     8 has        243 integration points.
  Task     9 has        221 integration points.
  Task    10 has        274 integration points.
  Task    11 has        196 integration points.
  Task    12 has        218 integration points.
  Task    13 has        198 integration points.
  Task    14 has        196 integration points.
  Task    15 has        246 integration points.
  Task    16 has        211 integration points.
  Task    17 has        246 integration points.
  Task    18 has        205 integration points.
  Task    19 has        198 integration points.
  Task    20 has        231 integration points.
  Task    21 has        200 integration points.
  Task    22 has        280 integration points.
  Task    23 has        226 integration points.
  Task    24 has        198 integration points.
  Task    25 has        241 integration points.
  Task    26 has        201 integration points.
  Task    27 has        293 integration points.
  Task    28 has        324 integration points.
  Task    29 has        268 integration points.
  Task    30 has        286 integration points.
  Task    31 has        257 integration points.
  Task    32 has        206 integration points.
  Task    33 has        310 integration points.
  Task    34 has        206 integration points.
  Task    35 has        214 integration points.
  Task    36 has        202 integration points.
  Task    37 has        195 integration points.
  Task    38 has        233 integration points.
  Task    39 has        209 integration points.
  Task    40 has        315 integration points.
  Task    41 has        189 integration points.
  Task    42 has        197 integration points.
  Task    43 has        205 integration points.
  Task    44 has        229 integration points.
  Task    45 has        265 integration points.
  Task    46 has        261 integration points.
  Task    47 has        227 integration points.
  Task    48 has        251 integration points.
  Task    49 has        188 integration points.
  Task    50 has        208 integration points.
  Task    51 has        213 integration points.
  Task    52 has        320 integration points.
  Task    53 has        227 integration points.
  Task    54 has        204 integration points.
  Task    55 has        290 integration points.
  Task    56 has        249 integration points.
  Task    57 has        272 integration points.
  Task    58 has        230 integration points.
  Task    59 has        262 integration points.
  Task    60 has        230 integration points.
  Task    61 has        248 integration points.
  Task    62 has        226 integration points.
  Task    63 has        203 integration points.
  Task    64 has        226 integration points.
  Task    65 has        199 integration points.
  Task    66 has        254 integration points.
  Task    67 has        223 integration points.
  Task    68 has        229 integration points.
  Task    69 has        249 integration points.
  Task    70 has        282 integration points.
  Task    71 has        210 integration points.
  Task    72 has        237 integration points.
  Task    73 has        194 integration points.
  Task    74 has        251 integration points.
  Task    75 has        246 integration points.
  Task    76 has        197 integration points.
  Task    77 has        217 integration points.
  Task    78 has        271 integration points.
  Task    79 has        205 integration points.
  Task    80 has        329 integration points.
  Task    81 has        232 integration points.
  Task    82 has        307 integration points.
  Task    83 has        218 integration points.
  Task    84 has        225 integration points.
  Task    85 has        282 integration points.
  Task    86 has        248 integration points.
  Task    87 has        323 integration points.
  Task    88 has        192 integration points.
  Task    89 has        191 integration points.
  Task    90 has        190 integration points.
  Task    91 has        260 integration points.
  Task    92 has        295 integration points.
  Task    93 has        251 integration points.
  Task    94 has        239 integration points.
  Task    95 has        223 integration points.
  Task    96 has        242 integration points.
  Task    97 has        245 integration points.
  Task    98 has        240 integration points.
  Task    99 has        284 integration points.
  Task   100 has        225 integration points.
  Task   101 has        256 integration points.
  Task   102 has        224 integration points.
  Task   103 has        200 integration points.
  Task   104 has        264 integration points.
  Task   105 has        283 integration points.
  Task   106 has        220 integration points.
  Task   107 has        221 integration points.
  Task   108 has        292 integration points.
  Task   109 has        187 integration points.
  Task   110 has        241 integration points.
  Task   111 has        212 integration points.
  Task   112 has        202 integration points.
  Task   113 has        294 integration points.
  Task   114 has        255 integration points.
  Task   115 has        202 integration points.
  Task   116 has        219 integration points.
  Task   117 has        345 integration points.
  Task   118 has        201 integration points.
  Task   119 has        188 integration points.
  Task   120 has        254 integration points.
  Task   121 has        209 integration points.
  Task   122 has        268 integration points.
  Task   123 has        208 integration points.
  Task   124 has        259 integration points.
  Task   125 has        241 integration points.
  Task   126 has        218 integration points.
  Task   127 has        207 integration points.
  Available memory per node after partition_grid [GB]:    230.85
  Initializing partition tables, free-atom densities, potentials, etc. across the integration grid (initialize_grid_storage).
  | initialize_grid_storage: Actual outermost partition radius vs. multipole_radius_free
  | (-- VB: in principle, multipole_radius_free should be larger, hence this output)
  | Species        1: Confinement radius =              4.999999999999999 AA, multipole_radius_free =              5.004487022111096 AA.
  | Species        1: outer_partition_radius set to              5.004487022111096 AA .
  | The sparse table of interatomic distances needs        453.94 kbyte instead of       839.81 kbyte of memory.
  | Net number of integration points:    30232
  | of which are non-zero points    :    26896
  | Numerical average free-atom electrostatic potential    :    -14.52510171 eV
  Available memory per node after initialize_grid_storage_p1 [GB]:    230.84
  Renormalizing the initial density to the exact electron count on the 3D integration grid.
  | Initial density: Formal number of electrons (from input files) :      52.0000000000
  | Integrated number of electrons on 3D grid     :      52.0020044615
  | Charge integration error                      :       0.0020044615
  | Normalization factor for density and gradient :       0.9999614541
  Renormalizing the free-atom superposition density to the exact electron count on the 3D integration grid.
  | Formal number of electrons (from input files) :      52.0000000000
  | Integrated number of electrons on 3D grid     :      52.0020044615
  | Charge integration error                      :       0.0020044615
  | Normalization factor for density and gradient :       0.9999614541
  Obtaining max. number of non-zero basis functions in each batch (get_n_compute_maxes).
  | Maximal number of non-zero basis functions:      746 in task     0
  | Maximal number of non-zero basis functions:      787 in task     1
  | Maximal number of non-zero basis functions:      716 in task     2
  | Maximal number of non-zero basis functions:      727 in task     3
  | Maximal number of non-zero basis functions:      862 in task     4
  | Maximal number of non-zero basis functions:      719 in task     5
  | Maximal number of non-zero basis functions:      838 in task     6
  | Maximal number of non-zero basis functions:      739 in task     7
  | Maximal number of non-zero basis functions:      744 in task     8
  | Maximal number of non-zero basis functions:      773 in task     9
  | Maximal number of non-zero basis functions:      842 in task    10
  | Maximal number of non-zero basis functions:      728 in task    11
  | Maximal number of non-zero basis functions:      744 in task    12
  | Maximal number of non-zero basis functions:      728 in task    13
  | Maximal number of non-zero basis functions:      739 in task    14
  | Maximal number of non-zero basis functions:      863 in task    15
  | Maximal number of non-zero basis functions:      769 in task    16
  | Maximal number of non-zero basis functions:      829 in task    17
  | Maximal number of non-zero basis functions:      733 in task    18
  | Maximal number of non-zero basis functions:      742 in task    19
  | Maximal number of non-zero basis functions:      775 in task    20
  | Maximal number of non-zero basis functions:      722 in task    21
  | Maximal number of non-zero basis functions:      719 in task    22
  | Maximal number of non-zero basis functions:      829 in task    23
  | Maximal number of non-zero basis functions:      758 in task    24
  | Maximal number of non-zero basis functions:      742 in task    25
  | Maximal number of non-zero basis functions:      688 in task    26
  | Maximal number of non-zero basis functions:      769 in task    27
  | Maximal number of non-zero basis functions:      758 in task    28
  | Maximal number of non-zero basis functions:      777 in task    29
  | Maximal number of non-zero basis functions:      733 in task    30
  | Maximal number of non-zero basis functions:      734 in task    31
  | Maximal number of non-zero basis functions:      761 in task    32
  | Maximal number of non-zero basis functions:      739 in task    33
  | Maximal number of non-zero basis functions:      798 in task    34
  | Maximal number of non-zero basis functions:      728 in task    35
  | Maximal number of non-zero basis functions:      728 in task    36
  | Maximal number of non-zero basis functions:      718 in task    37
  | Maximal number of non-zero basis functions:      785 in task    38
  | Maximal number of non-zero basis functions:      766 in task    39
  | Maximal number of non-zero basis functions:      742 in task    40
  | Maximal number of non-zero basis functions:      701 in task    41
  | Maximal number of non-zero basis functions:      719 in task    42
  | Maximal number of non-zero basis functions:      793 in task    43
  | Maximal number of non-zero basis functions:      838 in task    44
  | Maximal number of non-zero basis functions:      744 in task    45
  | Maximal number of non-zero basis functions:      727 in task    46
  | Maximal number of non-zero basis functions:      728 in task    47
  | Maximal number of non-zero basis functions:      742 in task    48
  | Maximal number of non-zero basis functions:      701 in task    49
  | Maximal number of non-zero basis functions:      741 in task    50
  | Maximal number of non-zero basis functions:      722 in task    51
  | Maximal number of non-zero basis functions:      727 in task    52
  | Maximal number of non-zero basis functions:      830 in task    53
  | Maximal number of non-zero basis functions:      718 in task    54
  | Maximal number of non-zero basis functions:      742 in task    55
  | Maximal number of non-zero basis functions:      863 in task    56
  | Maximal number of non-zero basis functions:      728 in task    57
  | Maximal number of non-zero basis functions:      775 in task    58
  | Maximal number of non-zero basis functions:      785 in task    59
  | Maximal number of non-zero basis functions:      734 in task    60
  | Maximal number of non-zero basis functions:      838 in task    61
  | Maximal number of non-zero basis functions:      787 in task    62
  | Maximal number of non-zero basis functions:      744 in task    63
  | Maximal number of non-zero basis functions:      727 in task    64
  | Maximal number of non-zero basis functions:      746 in task    65
  | Maximal number of non-zero basis functions:      787 in task    66
  | Maximal number of non-zero basis functions:      733 in task    67
  | Maximal number of non-zero basis functions:      784 in task    68
  | Maximal number of non-zero basis functions:      785 in task    69
  | Maximal number of non-zero basis functions:      728 in task    70
  | Maximal number of non-zero basis functions:      716 in task    71
  | Maximal number of non-zero basis functions:      837 in task    72
  | Maximal number of non-zero basis functions:      757 in task    73
  | Maximal number of non-zero basis functions:      833 in task    74
  | Maximal number of non-zero basis functions:      758 in task    75
  | Maximal number of non-zero basis functions:      746 in task    76
  | Maximal number of non-zero basis functions:      787 in task    77
  | Maximal number of non-zero basis functions:      727 in task    78
  | Maximal number of non-zero basis functions:      758 in task    79
  | Maximal number of non-zero basis functions:      733 in task    80
  | Maximal number of non-zero basis functions:      722 in task    81
  | Maximal number of non-zero basis functions:      719 in task    82
  | Maximal number of non-zero basis functions:      769 in task    83
  | Maximal number of non-zero basis functions:      761 in task    84
  | Maximal number of non-zero basis functions:      766 in task    85
  | Maximal number of non-zero basis functions:      758 in task    86
  | Maximal number of non-zero basis functions:      782 in task    87
  | Maximal number of non-zero basis functions:      744 in task    88
  | Maximal number of non-zero basis functions:      786 in task    89
  | Maximal number of non-zero basis functions:      739 in task    90
  | Maximal number of non-zero basis functions:      838 in task    91
  | Maximal number of non-zero basis functions:      727 in task    92
  | Maximal number of non-zero basis functions:      718 in task    93
  | Maximal number of non-zero basis functions:      784 in task    94
  | Maximal number of non-zero basis functions:      717 in task    95
  | Maximal number of non-zero basis functions:      732 in task    96
  | Maximal number of non-zero basis functions:      853 in task    97
  | Maximal number of non-zero basis functions:      739 in task    98
  | Maximal number of non-zero basis functions:      742 in task    99
  | Maximal number of non-zero basis functions:      733 in task   100
  | Maximal number of non-zero basis functions:      784 in task   101
  | Maximal number of non-zero basis functions:      785 in task   102
  | Maximal number of non-zero basis functions:      727 in task   103
  | Maximal number of non-zero basis functions:      716 in task   104
  | Maximal number of non-zero basis functions:      842 in task   105
  | Maximal number of non-zero basis functions:      785 in task   106
  | Maximal number of non-zero basis functions:      758 in task   107
  | Maximal number of non-zero basis functions:      741 in task   108
  | Maximal number of non-zero basis functions:      742 in task   109
  | Maximal number of non-zero basis functions:      828 in task   110
  | Maximal number of non-zero basis functions:      712 in task   111
  | Maximal number of non-zero basis functions:      718 in task   112
  | Maximal number of non-zero basis functions:      838 in task   113
  | Maximal number of non-zero basis functions:      744 in task   114
  | Maximal number of non-zero basis functions:      711 in task   115
  | Maximal number of non-zero basis functions:      782 in task   116
  | Maximal number of non-zero basis functions:      819 in task   117
  | Maximal number of non-zero basis functions:      701 in task   118
  | Maximal number of non-zero basis functions:      722 in task   119
  | Maximal number of non-zero basis functions:      733 in task   120
  | Maximal number of non-zero basis functions:      727 in task   121
  | Maximal number of non-zero basis functions:      785 in task   122
  | Maximal number of non-zero basis functions:      694 in task   123
  | Maximal number of non-zero basis functions:      566 in task   124
  | Maximal number of non-zero basis functions:      718 in task   125
  | Maximal number of non-zero basis functions:      718 in task   126
  | Maximal number of non-zero basis functions:      668 in task   127
  Available memory per node after get_n_compute_maxes_p1 [GB]:    230.81
  Allocating        0.000 MB for KS_eigenvector_complex
  Available memory per node after allocate_matrices [GB]:    230.81
  Available memory per node after init_comm_sparse_local_matrix_scalapack [GB]:    230.81
  Integrating Hamiltonian matrix: batch-based integration.
  Time summed over all CPUs for integration: real work        4.279 s, elapsed        6.496 s => Consider using load balancing!
  Available memory per node after integrate hamiltonian matrix [GB]:    230.44
  Integrating overlap matrix.
  Time summed over all CPUs for integration: real work        2.865 s, elapsed        4.348 s
  Available memory per node after integrate ovlp matrix [GB]:    230.00
  Available memory per node after ASI_callbacks invoke [GB]:    230.00
  Decreasing sparse matrix size:
  | Tolerance:  0.1000E-12
  Hamiltonian matrix
  | Array has   170932 nonzero elements out of   224229 elements
  | Sparsity factor is 0.238
  Overlap matrix
  | Array has   162494 nonzero elements out of   224229 elements
  | Sparsity factor is 0.275
  New size of hamiltonian matrix:      171821
  Available memory per node after save_overlap_scalapack [GB]:    229.85

  Updating Kohn-Sham eigenvalues and eigenvectors using ELSI and the (modified) LAPACK eigensolver.

  Obtaining occupation numbers and electronic chemical potential using ELSI.
  | Note that, for insulating systems, the printed 'chemical potential' value is not uniquely defined.
  | It can be anywhere in the energy gap, as long as it correctly separates occupied and unoccupied states.
  | In systems with a gap, the physically relevant chemical potential is the VBM or HOMO.

  | Chemical potential (Fermi level):    -5.57775076 eV
  Available memory per node after advance_KS_solution [GB]:    229.88
  Writing Kohn-Sham eigenvalues.
  K-point:       1 at    0.000000    0.000000    0.000000 (in units of recip. lattice)

  State    Occupation    Eigenvalue [Ha]    Eigenvalue [eV]
      1       2.00000         -55.631999        -1513.82372
      2       2.00000         -55.631998        -1513.82369
      3       2.00000         -55.631998        -1513.82369
      4       2.00000         -55.631997        -1513.82365
      5       2.00000          -3.972003         -108.08369
      6       2.00000          -3.971902         -108.08094
      7       2.00000          -3.971901         -108.08092
      8       2.00000          -3.971900         -108.08089
      9       2.00000          -2.556263          -69.55946
     10       2.00000          -2.556263          -69.55946
     11       2.00000          -2.556263          -69.55946
     12       2.00000          -2.555888          -69.54924
     13       2.00000          -2.555888          -69.54924
     14       2.00000          -2.555887          -69.54923
     15       2.00000          -2.555887          -69.54922
     16       2.00000          -2.555886          -69.54921
     17       2.00000          -2.555886          -69.54921
     18       2.00000          -2.555624          -69.54207
     19       2.00000          -2.555624          -69.54207
     20       2.00000          -2.555624          -69.54207
     21       2.00000          -0.591550          -16.09689
     22       2.00000          -0.299250           -8.14301
     23       2.00000          -0.299250           -8.14301
     24       2.00000          -0.299250           -8.14301
     25       2.00000          -0.255261           -6.94600
     26       2.00000          -0.255258           -6.94591
     27       2.00000          -0.255250           -6.94572
     28       0.00000          -0.004542           -0.12359
     29       0.00000          -0.004542           -0.12359
     30       0.00000          -0.004448           -0.12103
     31       0.00000          -0.000116           -0.00316
     32       0.00000          -0.000114           -0.00311
     33       0.00000          -0.000114           -0.00311
     34       0.00000          -0.000107           -0.00290
     35       0.00000          -0.000018           -0.00049
     36       0.00000          -0.000018           -0.00049
     37       0.00000           0.122223            3.32584
     38       0.00000           0.122235            3.32619

  What follows are estimated values for band gap, HOMO, LUMO, etc.
  | They are estimated on a discrete k-point grid and not necessarily exact.
  | For converged numbers, create a DOS and/or band structure plot on a denser k-grid.

  Highest occupied state (VBM) at     -5.58286328 eV (relative to internal zero)
  | Occupation number:      1.53033217
  | K-point:      33 at    0.166667    0.333333    0.666667 (in units of recip. lattice)

  Lowest unoccupied state (CBM) at    -5.57756118 eV (relative to internal zero)
  | Occupation number:      0.97861047
  | K-point:      74 at    0.333333    0.833333    0.666667 (in units of recip. lattice)

  ESTIMATED overall HOMO-LUMO gap:      0.00530210 eV between HOMO at k-point 33 and LUMO at k-point 74
  | This appears to be an indirect band gap.
  | Smallest direct gap :      0.01074831 eV for k_point 72 at    0.333333    0.833333    0.333333 (in units of recip. lattice)
  However, this system has fractional occupation numbers. Since we use a finite k-point grid,
  this material is metallic within the approximate finite broadening function (occupation_type)
  applied to determine the occupation numbers.
  Calculating total energy contributions from superposition of free atom densities.

  Total energy components:
  | Sum of eigenvalues            :        -542.42088652 Ha      -14760.02330386 eV
  | XC energy correction          :         -74.59011596 Ha       -2029.70032521 eV
  | XC potential correction       :          96.27745396 Ha        2619.84281829 eV
  | Free-atom electrostatic energy:        -451.52261188 Ha      -12286.55540242 eV
  | Hartree energy correction     :           0.00000000 Ha           0.00000000 eV
  | Entropy correction            :          -0.00001610 Ha          -0.00043804 eV
  | ---------------------------
  | Total energy                  :        -972.25616040 Ha      -26456.43621320 eV
  | Total energy, T -> 0          :        -972.25617650 Ha      -26456.43665124 eV  <-- do not rely on this value for anything but (periodic) metals
  | Electronic free energy        :        -972.25619260 Ha      -26456.43708928 eV

  Derived energy quantities:
  | Kinetic energy                :         974.72425871 Ha       26523.59658522 eV
  | Electrostatic energy          :       -1872.39030315 Ha      -50950.33247322 eV
  | Energy correction for multipole
  | error in Hartree potential    :           0.00000000 Ha           0.00000000 eV
  | Sum of eigenvalues per atom                           :       -3690.00582597 eV
  | Total energy (T->0) per atom                          :       -6614.10916281 eV  <-- do not rely on this value for anything but (periodic) metals
  | Electronic free energy per atom                       :       -6614.10927232 eV
  Initialize hartree_potential_storage
  Max. number of atoms included in rho_multipole:            4

  End scf initialization - timings             :  max(cpu_time)    wall_clock(cpu1)
  | Time for scf. initialization                :        0.156 s           0.157 s
  | Boundary condition initialization           :        0.045 s           0.046 s
  | Integration                                 :        0.101 s           0.101 s
  | Solution of K.-S. eqns.                     :        0.015 s           0.013 s
  | Grid partitioning                           :        0.011 s           0.010 s
  | Preloading free-atom quantities on grid     :        0.017 s           0.019 s
  | Free-atom superposition energy              :        0.002 s           0.001 s
  | Total energy evaluation                     :        0.001 s           0.003 s

  Partial memory accounting:
  | Current value for overall tracked memory usage:
  |   Minimum:        3.300 MB (on task   0)
  |   Maximum:        3.358 MB (on task   1)
  |   Average:        3.350 MB
  | Peak value for overall tracked memory usage:
  |   Minimum:        9.075 MB (on task 124 after allocating wave)
  |   Maximum:       13.595 MB (on task  15 after allocating wave)
  |   Average:       11.832 MB
  | Largest tracked array allocation so far:
  |   Minimum:        2.444 MB (hamiltonian_shell on task 124)
  |   Maximum:        5.682 MB (hamiltonian_shell on task  15)
  |   Average:        4.370 MB
  Note:  These values currently only include a subset of arrays which are explicitly tracked.
  The "true" memory usage will be greater.
------------------------------------------------------------
  Available memory after initialize_scf [GB]:    229.88
  Available memory after allocating mixing [GB]:    229.88
  Evaluating new KS density using the density matrix
  Evaluating density matrix
  Time summed over all CPUs for getting density from density matrix: real work       12.601 s, elapsed       19.532 s
  Integration grid: deviation in total charge (<rho> - N_e) =  -1.278977E-12

  Time for density update prior                :  max(cpu_time)    wall_clock(cpu1)
  | self-consistency iterative process          :        0.160 s           0.161 s
  Available memory before start of SCF loop [GB]:    229.72

------------------------------------------------------------
          Begin self-consistency iteration #    1

  Date     :  20250925, Time     :  064007.028
------------------------------------------------------------
  Pulay mixing of updated and previous charge densities.
  Available memory per node after mixing [GB]:    229.71
  Renormalizing the density to the exact electron count on the 3D integration grid.
  | Formal number of electrons (from input files) :      52.0000000000
  | Integrated number of electrons on 3D grid     :      52.0003422045
  | Charge integration error                      :       0.0003422045
  | Normalization factor for density and gradient :       0.9999934192

  Evaluating partitioned Hartree potential by multipole expansion.
  | Original multipole sum: apparent total charge =   0.372843E-14
  | Sum of charges compensated after spline to logarithmic grids =  -0.249565E-06
  | Analytical far-field extrapolation by fixed multipoles:
  | Hartree multipole sum: apparent total charge =   0.373564E-14
  Summing up the Hartree potential.
  Time summed over all CPUs for potential: real work        0.006 s, elapsed        0.008 s
  | RMS charge density error from multipole expansion :   0.446056E-03
  | Average real-space part of the electrostatic potential :     -0.01448052 eV

  Integrating Hamiltonian matrix: batch-based integration.
  Time summed over all CPUs for integration: real work        4.178 s, elapsed        6.516 s => Consider using load balancing!

  Updating Kohn-Sham eigenvalues and eigenvectors using ELSI and the (modified) LAPACK eigensolver.

  Obtaining occupation numbers and electronic chemical potential using ELSI.
  | Note that, for insulating systems, the printed 'chemical potential' value is not uniquely defined.
  | It can be anywhere in the energy gap, as long as it correctly separates occupied and unoccupied states.
  | In systems with a gap, the physically relevant chemical potential is the VBM or HOMO.

  | Chemical potential (Fermi level):    -5.58005414 eV
  Writing Kohn-Sham eigenvalues.
  K-point:       1 at    0.000000    0.000000    0.000000 (in units of recip. lattice)

  State    Occupation    Eigenvalue [Ha]    Eigenvalue [eV]
      1       2.00000         -55.633654        -1513.86874
      2       2.00000         -55.633653        -1513.86871
      3       2.00000         -55.633653        -1513.86871
      4       2.00000         -55.633651        -1513.86868
      5       2.00000          -3.973298         -108.11894
      6       2.00000          -3.973197         -108.11620
      7       2.00000          -3.973197         -108.11618
      8       2.00000          -3.973195         -108.11615
      9       2.00000          -2.557556          -69.59464
     10       2.00000          -2.557556          -69.59464
     11       2.00000          -2.557556          -69.59463
     12       2.00000          -2.557182          -69.58445
     13       2.00000          -2.557182          -69.58445
     14       2.00000          -2.557181          -69.58443
     15       2.00000          -2.557181          -69.58443
     16       2.00000          -2.557180          -69.58442
     17       2.00000          -2.557180          -69.58442
     18       2.00000          -2.556919          -69.57730
     19       2.00000          -2.556919          -69.57730
     20       2.00000          -2.556918          -69.57729
[...]
  | Occupation number:      1.37291461
  | K-point:      70 at    0.333333    0.666667    0.833333 (in units of recip. lattice)

  Lowest unoccupied state (CBM) at    -5.29512477 eV (relative to internal zero)
  | Occupation number:      0.00000000
  | K-point:      83 at    0.500000    0.333333    0.000000 (in units of recip. lattice)

  ESTIMATED overall HOMO-LUMO gap:      0.32791146 eV between HOMO at k-point 70 and LUMO at k-point 83
  | This appears to be an indirect band gap.
  | Smallest direct gap :      1.02565431 eV for k_point 75 at    0.500000    0.000000    0.000000 (in units of recip. lattice)
  However, this system has fractional occupation numbers. Since we use a finite k-point grid,
  this material is metallic within the approximate finite broadening function (occupation_type)
  applied to determine the occupation numbers.

  Total energy components:
  | Sum of eigenvalues            :        -543.65483512 Ha      -14793.60075384 eV
  | XC energy correction          :         -74.52520254 Ha       -2027.93394127 eV
  | XC potential correction       :          96.19059041 Ha        2617.47914100 eV
  | Free-atom electrostatic energy:        -451.52261188 Ha      -12286.55540242 eV
  | Hartree energy correction     :           1.25862533 Ha          34.24893776 eV
  | Entropy correction            :          -0.00009509 Ha          -0.00258765 eV
  | ---------------------------
  | Total energy                  :        -972.25343381 Ha      -26456.36201878 eV
  | Total energy, T -> 0          :        -972.25352890 Ha      -26456.36460643 eV  <-- do not rely on this value for anything but (periodic) metals
  | Electronic free energy        :        -972.25362400 Ha      -26456.36719407 eV

  Derived energy quantities:
  | Kinetic energy                :         973.81703871 Ha       26498.90987299 eV
  | Electrostatic energy          :       -1871.54526998 Ha      -50927.33795050 eV
  | Energy correction for multipole
  | error in Hartree potential    :           0.00302788 Ha           0.08239294 eV
  | Sum of eigenvalues per atom                           :       -3698.40018846 eV
  | Total energy (T->0) per atom                          :       -6614.09115161 eV  <-- do not rely on this value for anything but (periodic) metals
  | Electronic free energy per atom                       :       -6614.09179852 eV
  Evaluating new KS density using the density matrix
  Evaluating density matrix
  Time summed over all CPUs for getting density from density matrix: real work       12.613 s, elapsed       19.565 s
  
  Evaluating density-matrix-based force terms: batch-based integration
  Evaluating density matrix
  Evaluating density matrix
  Integration grid: deviation in total charge (<rho> - N_e) =  -1.286082E-12

  atomic forces [eV/Ang]:
  -----------------------
  atom #    1
   Hellmann-Feynman              :  0.134160E+00  0.465600E-09  0.649716E-08
   Ionic forces                  :  0.000000E+00  0.000000E+00  0.000000E+00
   Multipole                     : -0.117425E-02 -0.434712E-12 -0.213186E-11
   Hartree pot. SCF incomplete   :  0.774318E-07 -0.504857E-09 -0.382865E-08
   Pulay + GGA                   : -0.166664E+00  0.830134E-09 -0.236763E-08
   ----------------------------------------------------------------
   Total forces(   1)            : -0.336782E-01  0.790443E-09  0.298739E-09
  atom #    2
   Hellmann-Feynman              : -0.958892E-01  0.146743E-08 -0.437477E-08
   Ionic forces                  :  0.000000E+00  0.000000E+00  0.000000E+00
   Multipole                     :  0.236880E-03  0.522340E-12  0.949448E-12
   Hartree pot. SCF incomplete   :  0.127791E-06 -0.634211E-09  0.226618E-08
   Pulay + GGA                   :  0.807125E-01 -0.273265E-08 -0.876902E-09
   ----------------------------------------------------------------
   Total forces(   2)            : -0.149397E-01 -0.189891E-08 -0.298454E-08
  atom #    3
   Hellmann-Feynman              : -0.191344E-01  0.872674E-09 -0.600625E-08
   Ionic forces                  :  0.000000E+00  0.000000E+00  0.000000E+00
   Multipole                     :  0.468713E-03 -0.127538E-11  0.176793E-11
   Hartree pot. SCF incomplete   : -0.118864E-06 -0.105132E-08  0.374756E-08
   Pulay + GGA                   :  0.429739E-01  0.116920E-09 -0.143812E-08
   ----------------------------------------------------------------
   Total forces(   3)            :  0.243081E-01 -0.629978E-10 -0.369503E-08
  atom #    4
   Hellmann-Feynman              : -0.191347E-01  0.129388E-08  0.429177E-08
   Ionic forces                  :  0.000000E+00  0.000000E+00  0.000000E+00
   Multipole                     :  0.468715E-03  0.703046E-12 -0.173236E-11
   Hartree pot. SCF incomplete   : -0.786805E-07 -0.434064E-09 -0.149553E-08
   Pulay + GGA                   :  0.429741E-01 -0.351345E-08 -0.286455E-08
   ----------------------------------------------------------------
   Total forces(   4)            :  0.243081E-01 -0.265293E-08 -0.700392E-10


  Self-consistency convergence accuracy:
  | Change of charge density      :  0.1619E-07
  | Change of unmixed KS density  :  0.1537E-08
  | Change of sum of eigenvalues  : -0.1936E-05 eV
  | Change of total energy        :  0.3898E-09 eV
  | Change of forces              :  0.2265E-06 eV/A

  Writing Kohn-Sham eigenvalues.
  K-point:       1 at    0.000000    0.000000    0.000000 (in units of recip. lattice)

  State    Occupation    Eigenvalue [Ha]    Eigenvalue [eV]
      1       2.00000         -55.662785        -1514.66143
      2       2.00000         -55.662784        -1514.66141
      3       2.00000         -55.662784        -1514.66141
      4       2.00000         -55.662782        -1514.66135
      5       2.00000          -4.002671         -108.91823
      6       2.00000          -4.002574         -108.91558
      7       2.00000          -4.002574         -108.91557
      8       2.00000          -4.002573         -108.91555
      9       2.00000          -2.586409          -70.37978
     10       2.00000          -2.586409          -70.37978
     11       2.00000          -2.586409          -70.37978
     12       2.00000          -2.586052          -70.37006
     13       2.00000          -2.586052          -70.37006
     14       2.00000          -2.586052          -70.37006
     15       2.00000          -2.586052          -70.37005
     16       2.00000          -2.586051          -70.37004
     17       2.00000          -2.586051          -70.37004
     18       2.00000          -2.585801          -70.36323
     19       2.00000          -2.585801          -70.36323
     20       2.00000          -2.585801          -70.36323
     21       2.00000          -0.592947          -16.13491
     22       2.00000          -0.300854           -8.18665
     23       2.00000          -0.300854           -8.18665
     24       2.00000          -0.300853           -8.18663
     25       2.00000          -0.256710           -6.98543
     26       2.00000          -0.256706           -6.98534
     27       2.00000          -0.256701           -6.98520
     28       0.00000          -0.005893           -0.16035
     29       0.00000          -0.005893           -0.16035
     30       0.00000          -0.005797           -0.15774
     31       0.00000          -0.002259           -0.06148
     32       0.00000          -0.002257           -0.06142
     33       0.00000          -0.002257           -0.06142
     34       0.00000          -0.002250           -0.06123
     35       0.00000          -0.002159           -0.05875
     36       0.00000          -0.002159           -0.05875
     37       0.00000           0.119624            3.25513
     38       0.00000           0.119636            3.25546

  What follows are estimated values for band gap, HOMO, LUMO, etc.
  | They are estimated on a discrete k-point grid and not necessarily exact.
  | For converged numbers, create a DOS and/or band structure plot on a denser k-grid.

  Highest occupied state (VBM) at     -5.62303623 eV (relative to internal zero)
  | Occupation number:      1.37291461
  | K-point:      70 at    0.333333    0.666667    0.833333 (in units of recip. lattice)

  Lowest unoccupied state (CBM) at    -5.29512477 eV (relative to internal zero)
  | Occupation number:      0.00000000
  | K-point:      83 at    0.500000    0.333333    0.000000 (in units of recip. lattice)

  ESTIMATED overall HOMO-LUMO gap:      0.32791146 eV between HOMO at k-point 70 and LUMO at k-point 83
  | This appears to be an indirect band gap.
  | Smallest direct gap :      1.02565431 eV for k_point 75 at    0.500000    0.000000    0.000000 (in units of recip. lattice)
  However, this system has fractional occupation numbers. Since we use a finite k-point grid,
  this material is metallic within the approximate finite broadening function (occupation_type)
  applied to determine the occupation numbers.

  | Chemical Potential                          :    -5.60585943 eV
  | Note that, for insulating systems, the printed 'chemical potential' value is not uniquely defined.
  | It can be anywhere in the energy gap, as long as it correctly separates occupied and unoccupied states.
  | In systems with a gap, the physically relevant chemical potential is the VBM or HOMO.

  Self-consistency cycle converged.


------------------------------------------------------------
  End self-consistency iteration #     7       :  max(cpu_time)    wall_clock(cpu1)
  | Time for this iteration                     :        0.945 s           0.950 s
  | Charge density & force component update     :        0.800 s           0.801 s
  | Density mixing                              :        0.010 s           0.002 s
  | Hartree multipole update                    :        0.001 s           0.002 s
  | Hartree multipole summation                 :        0.028 s           0.028 s
  | Hartree pot. SCF incomplete forces          :        0.031 s           0.031 s
  | Integration                                 :        0.059 s           0.059 s
  | Solution of K.-S. eqns.                     :        0.008 s           0.009 s
  | Total energy evaluation                     :        0.005 s           0.003 s

  Partial memory accounting:
  | Current value for overall tracked memory usage:
  |   Minimum:        3.555 MB (on task 119)
  |   Maximum:        3.691 MB (on task  80)
  |   Average:        3.632 MB
  | Peak value for overall tracked memory usage:
  |   Minimum:       21.498 MB (on task 124 after allocating d_wave)
  |   Maximum:       32.900 MB (on task  56 after allocating d_wave)
  |   Average:       28.636 MB
  | Largest tracked array allocation so far:
  |   Minimum:        5.118 MB (density_matrix_con on task 124)
  |   Maximum:        7.071 MB (hessian_basis_wave on task  15)
  |   Average:        6.194 MB
  Note:  These values currently only include a subset of arrays which are explicitly tracked.
  The "true" memory usage will be greater.
------------------------------------------------------------
  Removing unitary transformations (pure translations, rotations) from forces on atoms.
  Atomic forces before filtering:
  | Net force on center of mass :  -0.175443E-05 -0.382440E-08 -0.645087E-08 eV/A
  Atomic forces after filtering:
  | Net force on center of mass :  -0.557519E-17  0.332307E-24 -0.664615E-24 eV/A

  Energy and forces in a compact form:
  | Total energy uncorrected      :         -0.264563620187761E+05 eV
  | Total energy corrected        :         -0.264563646064253E+05 eV  <-- do not rely on this value for anything but (periodic) metals
  | Electronic free energy        :         -0.264563671940745E+05 eV
  Total atomic forces (unitary forces cleaned) [eV/Ang]:
  |    1         -0.336777818705560E-01          0.174654210401391E-08          0.191145716293781E-08
  |    2         -0.149392886350213E-01         -0.942808195942572E-09         -0.137182172387624E-08
  |    3          0.243085405470302E-01          0.893101574441206E-09         -0.208231428315331E-08
  |    4          0.243085299585471E-01         -0.169683548251254E-08          0.154267884409174E-08

  ------------------------------------ 
  Start decomposition of the XC Energy 
  ------------------------------------ 
  X and C from original XC functional choice 
  Hartree-Fock Energy :          0.000000000 Ha              0.000000000 eV
  X Energy            :        -72.476392086 Ha          -1972.182972216 eV
  C Energy            :         -2.048810455 Ha            -55.750969055 eV
  XC Energy w/o HF    :        -74.525202541 Ha          -2027.933941271 eV
  Total XC Energy     :        -74.525202541 Ha          -2027.933941271 eV
  ------------------------------------ 
  LDA X and C from self-consistent density 
  X Energy LDA        :        -66.941589239 Ha          -1821.573323823 eV
  C Energy LDA        :         -3.952174676 Ha           -107.544144722 eV
  ------------------------------------ 
  End decomposition of the XC Energy 
  ------------------------------------ 

------------------------------------------------------------

------------------------------------------------------------


------------------------------------------------------------------------------
  Final output of selected total energy values:

  The following output summarizes some interesting total energy values
  at the end of a run (AFTER all relaxation, molecular dynamics, etc.).

  | Total energy of the DFT / Hartree-Fock s.c.f. calculation      :         -26456.362018776 eV
  | Final zero-broadening corrected energy (caution - metals only) :         -26456.364606425 eV
  | For reference only, the value of 1 Hartree used in FHI-aims is :             27.211384500 eV
  | For reference only, the overall average (free atom contribution
  | + realspace contribution) of the electrostatic potential after
  | s.c.f. convergence is                                          :            -14.906800309 eV

  Before relying on these values, please be sure to understand exactly which
  total energy value is referred to by a given number. Different objects may
  all carry the same name 'total energy'. Definitions:

  Total energy of the DFT / Hartree-Fock s.c.f. calculation:
  | Note that this energy does not include ANY quantities calculated after the
  | s.c.f. cycle, in particular not ANY RPA, MP2, etc. many-body perturbation terms.

  Final zero-broadening corrected energy:
  | For metallic systems only, a broadening of the occupation numbers at the Fermi
  | level can be extrapolated back to zero broadening by an electron-gas inspired
  | formula. For all systems that are not real metals, this value can be
  | meaningless and should be avoided.

------------------------------------------------------------------------------
  Methods described in the following list of references were used in this FHI-aims run.
  If you publish the results, please make sure to cite these reference if they apply.
  FHI-aims is an academic code, and for our developers (often, Ph.D. students
  and postdocs), scientific credit in the community is essential.
  Thank you for helping us!

  For any use of FHI-aims, please cite:

    Volker Blum, Ralf Gehrke, Felix Hanke, Paula Havu, Ville Havu,
    Xinguo Ren, Karsten Reuter, and Matthias Scheffler
    'Ab initio molecular simulations with numeric atom-centered orbitals'
    Computer Physics Communications 180, 2175-2196 (2009)
    http://doi.org/10.1016/j.cpc.2009.06.022


  The provided symmetry information was generated with SPGlib:

    Atsushi Togo, Yusuke Seto, Dimitar Pashov
    SPGlib 1.7.3 obtained from http://spglib.sourceforge.net
    Copyright (C) 2008 Atsushi Togo


  The ELSI infrastructure was used in your run to solve the Kohn-Sham electronic structure.
  Please check out http://elsi-interchange.org to learn more.
  If scalability is important for your project, please acknowledge ELSI by citing:

    V. W-z. Yu, F. Corsetti, A. Garcia, W. P. Huhn, M. Jacquelin, W. Jia,
    B. Lange, L. Lin, J. Lu, W. Mi, A. Seifitokaldani, A. Vazquez-Mayagoitia,
    C. Yang, H. Yang, and V. Blum
    'ELSI: A unified software interface for Kohn-Sham electronic structure solvers'
    Computer Physics Communications 222, 267-285 (2018).
    http://doi.org/10.1016/j.cpc.2017.09.007


  For the real-space grid partitioning and parallelization used in this calculation, please cite:

    Ville Havu, Volker Blum, Paula Havu, and Matthias Scheffler,
    'Efficient O(N) integration for all-electron electronic structure calculation'
    'using numerically tabulated basis functions'
    Journal of Computational Physics 228, 8367-8379 (2009).
    http://doi.org/10.1016/j.jcp.2009.08.008

  Of course, there are many other important community references, e.g., those cited in the
  above references. Our list is limited to references that describe implementations in the
  FHI-aims code. The reason is purely practical (length of this list) - please credit others as well.

 * A warning was issued further up regarding the CPU load.
   Some CPUs do not participate in the eigenvalue solution.
   In corner cases, this may be the correct behavior. Otherwise,
   consider using a scalapack/elpa version of the code for a parallel treatment.

------------------------------------------------------------
          Leaving FHI-aims.
          Date     :  20250925, Time     :  064032.883

          Computational steps:
          | Number of self-consistency cycles          :           81
          | Number of SCF (re)initializations          :           14

          Detailed time accounting                     :  max(cpu_time)    wall_clock(cpu1)
          | Total time                                  :       25.482 s          26.994 s
          | Preparation time                            :        0.126 s           0.129 s
          | Boundary condition initalization            :        0.612 s           0.580 s
          | Grid partitioning                           :        0.121 s           0.120 s
          | Preloading free-atom quantities on grid     :        0.204 s           0.204 s
          | Free-atom superposition energy              :        0.017 s           0.018 s
          | Total time for integrations                 :        5.375 s           5.370 s
          | Total time for solution of K.-S. equations  :        0.712 s           0.774 s
          | Total time for density & force components   :       13.943 s          13.946 s
          | Total time for mixing & preconditioning     :        1.510 s           0.877 s
          | Total time for Hartree multipole update     :        0.081 s           0.112 s
          | Total time for Hartree multipole sum        :        0.860 s           0.869 s
          | Total time for total energy evaluation      :        0.365 s           0.188 s
          | Total time NSC force correction             :        0.061 s           0.061 s
          | Total time for scaled ZORA corrections      :        0.000 s           0.000 s

          Partial memory accounting:
          | Residual value for overall tracked memory usage across tasks:     0.000000 MB (should be 0.000000 MB)
          | Peak values for overall tracked memory usage:
          |   Minimum:       21.498 MB (on task 124 after allocating d_wave)
          |   Maximum:       32.900 MB (on task  56 after allocating d_wave)
          |   Average:       28.636 MB
          | Largest tracked array allocation:
          |   Minimum:        5.118 MB (density_matrix_con on task 124)
          |   Maximum:        7.071 MB (hessian_basis_wave on task  15)
          |   Average:        6.194 MB
          Note:  These values currently only include a subset of arrays which are explicitly tracked.
          The "true" memory usage will be greater.

          Have a nice day.
------------------------------------------------------------
