calculator: aims
length_unit: angstrom
nqpoint: 707    
npath: 7      
segment_nqpoint:
- 101
- 101
- 101
- 101
- 101
- 101
- 101
labels:
- [ '$\Gamma$', 'X' ]
- [ 'X', 'M' ]
- [ 'M', '$\Gamma$' ]
- [ '$\Gamma$', 'R' ]
- [ 'R', 'X' ]
- [ 'X', 'M' ]
- [ 'M', 'R' ]
reciprocal_lattice:
- [   0.24265955,   0.00000000,   0.00000000 ] # a*
- [   0.00000000,   0.24265955,   0.00000000 ] # b*
- [   0.00000000,   0.00000000,   0.24265955 ] # c*
natom: 4      
lattice:
- [     4.121000000000000,     0.000000000000000,     0.000000000000000 ] # a
- [     0.000000000000000,     4.121000000000000,     0.000000000000000 ] # b
- [     0.000000000000000,     0.000000000000000,     4.121000000000000 ] # c
points:
- symbol: Al # 1
  coordinates: [  0.000000000000000,  0.000000000000000,  0.000000000000000 ]
  mass: 26.981539
- symbol: Al # 2
  coordinates: [  0.000000000000000,  0.500000000000000,  0.500000000000000 ]
  mass: 26.981539
- symbol: Al # 3
  coordinates: [  0.500000000000000,  0.000000000000000,  0.500000000000000 ]
  mass: 26.981539
- symbol: Al # 4
  coordinates: [  0.500000000000000,  0.500000000000000,  0.000000000000000 ]
  mass: 26.981539

phonon:
- q-position: [    0.0000000,    0.0000000,    0.0000000 ]
  distance:    0.0000000
  band:
  - # 1
    frequency:   -0.0000001030
  - # 2
    frequency:   -0.0000000526
  - # 3
    frequency:    0.0000000598
  - # 4
    frequency:    4.1198812750
  - # 5
    frequency:    4.1198812750
  - # 6
    frequency:    4.1198812750
  - # 7
    frequency:    4.1198812750
  - # 8
    frequency:    4.1198812750
  - # 9
    frequency:    4.1198812750
  - # 10
    frequency:    9.3848375171
  - # 11
    frequency:    9.3848375171
  - # 12
    frequency:    9.3848375171

- q-position: [    0.0000000,    0.0050000,    0.0000000 ]
  distance:    0.0012133
  band:
  - # 1
    frequency:    0.0323571392
  - # 2
    frequency:    0.0323571392
  - # 3
    frequency:    0.0737075837
  - # 4
    frequency:    4.1197542082
  - # 5
    frequency:    4.1197542082
  - # 6
    frequency:    4.1198812750
  - # 7
    frequency:    4.1198812750
  - # 8
    frequency:    4.1204135161
  - # 9
    frequency:    4.1204135161
  - # 10
    frequency:    9.3845480666
  - # 11
    frequency:    9.3846038488
  - # 12
    frequency:    9.3846038488

- q-position: [    0.0000000,    0.0100000,    0.0000000 ]
  distance:    0.0024266
  band:
  - # 1
    frequency:    0.0647122825
  - # 2
    frequency:    0.0647122825
  - # 3
    frequency:    0.1474106208
  - # 4
    frequency:    4.1193730155
  - # 5
    frequency:    4.1193730155
  - # 6
    frequency:    4.1198812750
  - # 7
    frequency:    4.1198812750
  - # 8
    frequency:    4.1220096958
  - # 9
    frequency:    4.1220096958
  - # 10
    frequency:    9.3836797330
  - # 11
    frequency:    9.3839028667
  - # 12
    frequency:    9.3839028667

- q-position: [    0.0000000,    0.0150000,    0.0000000 ]
  distance:    0.0036399
  band:
  - # 1
    frequency:    0.0970634340
  - # 2
    frequency:    0.0970634340
  - # 3
    frequency:    0.2211045649
  - # 4
    frequency:    4.1187377205
  - # 5
    frequency:    4.1187377205
  - # 6
    frequency:    4.1198812750
  - # 7
    frequency:    4.1198812750
  - # 8
    frequency:    4.1246681853
  - # 9
    frequency:    4.1246681853
  - # 10
    frequency:    9.3822325698
  - # 11
    frequency:    9.3827346389
  - # 12
    frequency:    9.3827346389

- q-position: [    0.0000000,    0.0200000,    0.0000000 ]
  distance:    0.0048532
  band:
  - # 1
    frequency:    0.1294085982
  - # 2
    frequency:    0.1294085982
  - # 3
    frequency:    0.2947848702
  - # 4
    frequency:    4.1178483623
  - # 5
    frequency:    4.1178483623
  - # 6
    frequency:    4.1198812750
  - # 7
    frequency:    4.1198812750
  - # 8
    frequency:    4.1283862773
  - # 9
    frequency:    4.1283862773
  - # 10
    frequency:    9.3802066663
  - # 11
    frequency:    9.3810992793
  - # 12
    frequency:    9.3810992793

- q-position: [    0.0000000,    0.0250000,    0.0000000 ]
  distance:    0.0060665
  band:
  - # 1
    frequency:    0.1617457798
  - # 2
    frequency:    0.1617457798
  - # 3
    frequency:    0.3684469919
  - # 4
    frequency:    4.1167049959
  - # 5
    frequency:    4.1167049959
  - # 6
    frequency:    4.1198812750
  - # 7
    frequency:    4.1198812750
  - # 8
    frequency:    4.1331601964
  - # 9
    frequency:    4.1331601964
  - # 10
    frequency:    9.3776021475
  - # 11
    frequency:    9.3789969471
  - # 12
    frequency:    9.3789969471

- q-position: [    0.0000000,    0.0300000,    0.0000000 ]
  distance:    0.0072798
  band:
  - # 1
    frequency:    0.1940729842
  - # 2
    frequency:    0.1940729842
  - # 3
    frequency:    0.4420863859
  - # 4
    frequency:    4.1153076917
  - # 5
    frequency:    4.1153076917
  - # 6
    frequency:    4.1198812750
  - # 7
    frequency:    4.1198812750
  - # 8
    frequency:    4.1389851135
  - # 9
    frequency:    4.1389851135
  - # 10
    frequency:    9.3744191740
  - # 11
    frequency:    9.3764278472
  - # 12
    frequency:    9.3764278472

- q-position: [    0.0000000,    0.0350000,    0.0000000 ]
  distance:    0.0084931
  band:
  - # 1
    frequency:    0.2263882173
  - # 2
    frequency:    0.2263882173
  - # 3
    frequency:    0.5156985100
  - # 4
    frequency:    4.1136565359
  - # 5
    frequency:    4.1136565359
  - # 6
    frequency:    4.1198812750
  - # 7
    frequency:    4.1198812750
  - # 8
    frequency:    4.1458551649
  - # 9
    frequency:    4.1458551649
  - # 10
    frequency:    9.3706579422
  - # 11
    frequency:    9.3733922298
  - # 12
    frequency:    9.3733922298

- q-position: [    0.0000000,    0.0400000,    0.0000000 ]
  distance:    0.0097064
  band:
  - # 1
    frequency:    0.2586894857
  - # 2
    frequency:    0.2586894857
  - # 3
    frequency:    0.5892788234
  - # 4
    frequency:    4.1117516304
  - # 5
    frequency:    4.1117516304
  - # 6
    frequency:    4.1198812750
  - # 7
    frequency:    4.1198812750
  - # 8
    frequency:    4.1537634745
  - # 9
    frequency:    4.1537634745
  - # 10
    frequency:    9.3663186840
  - # 11
    frequency:    9.3698903911
  - # 12
    frequency:    9.3698903911

- q-position: [    0.0000000,    0.0450000,    0.0000000 ]
  distance:    0.0109197
  band:
  - # 1
    frequency:    0.2909747968
  - # 2
    frequency:    0.2909747968
  - # 3
    frequency:    0.6628227873
  - # 4
    frequency:    4.1095930927
  - # 5
    frequency:    4.1095930927
  - # 6
    frequency:    4.1198812750
  - # 7
    frequency:    4.1198812750
  - # 8
    frequency:    4.1627021795
  - # 9
    frequency:    4.1627021795
  - # 10
    frequency:    9.3614016672
  - # 11
    frequency:    9.3659226725
  - # 12
    frequency:    9.3659226725

- q-position: [    0.0000000,    0.0500000,    0.0000000 ]
  distance:    0.0121330
  band:
  - # 1
    frequency:    0.3232421593
  - # 2
    frequency:    0.3232421593
  - # 3
    frequency:    0.7363258651
  - # 4
    frequency:    4.1071810560
  - # 5
    frequency:    4.1071810560
  - # 6
    frequency:    4.1198812750
  - # 7
    frequency:    4.1198812750
  - # 8
    frequency:    4.1726624602
  - # 9
    frequency:    4.1726624602
  - # 10
    frequency:    9.3559071951
  - # 11
    frequency:    9.3614894614
  - # 12
    frequency:    9.3614894614

- q-position: [    0.0000000,    0.0550000,    0.0000000 ]
  distance:    0.0133463
  band:
  - # 1
    frequency:    0.3554895827
  - # 2
    frequency:    0.3554895827
  - # 3
    frequency:    0.8097835230
  - # 4
    frequency:    4.1045156690
  - # 5
    frequency:    4.1045156690
  - # 6
    frequency:    4.1198812750
  - # 7
    frequency:    4.1198812750
  - # 8
    frequency:    4.1836345719
  - # 9
    frequency:    4.1836345719
  - # 10
    frequency:    9.3498356065
  - # 11
    frequency:    9.3565911908
  - # 12
    frequency:    9.3565911908

- q-position: [    0.0000000,    0.0600000,    0.0000000 ]
  distance:    0.0145596
  band:
  - # 1
    frequency:    0.3877150779
  - # 2
    frequency:    0.3877150779
  - # 3
    frequency:    0.8831912295
  - # 4
    frequency:    4.1015970961
  - # 5
    frequency:    4.1015970961
  - # 6
    frequency:    4.1198812750
  - # 7
    frequency:    4.1198812750
  - # 8
    frequency:    4.1956078805
  - # 9
    frequency:    4.1956078805
  - # 10
    frequency:    9.3431872760
  - # 11
    frequency:    9.3512283394
  - # 12
    frequency:    9.3512283394

- q-position: [    0.0000000,    0.0650000,    0.0000000 ]
  distance:    0.0157729
  band:
  - # 1
    frequency:    0.4199166569
  - # 2
    frequency:    0.4199166569
  - # 3
    frequency:    0.9565444567
  - # 4
    frequency:    4.0984255174
  - # 5
    frequency:    4.0984255174
  - # 6
    frequency:    4.1198812750
  - # 7
    frequency:    4.1198812750
  - # 8
    frequency:    4.2085708999
  - # 9
    frequency:    4.2085708999
  - # 10
    frequency:    9.3359626137
  - # 11
    frequency:    9.3454014319
  - # 12
    frequency:    9.3454014319

- q-position: [    0.0000000,    0.0700000,    0.0000000 ]
  distance:    0.0169862
  band:
  - # 1
    frequency:    0.4520923335
  - # 2
    frequency:    0.4520923335
  - # 3
    frequency:    1.0298386796
  - # 4
    frequency:    4.0950011285
  - # 5
    frequency:    4.0950011285
  - # 6
    frequency:    4.1198812750
  - # 7
    frequency:    4.1198812750
  - # 8
    frequency:    4.2225113319
  - # 9
    frequency:    4.2225113319
  - # 10
    frequency:    9.3281620653
  - # 11
    frequency:    9.3391110388
  - # 12
    frequency:    9.3391110388

- q-position: [    0.0000000,    0.0750000,    0.0000000 ]
  distance:    0.0181995
  band:
  - # 1
    frequency:    0.4842401229
  - # 2
    frequency:    0.4842401229
  - # 3
    frequency:    1.1030693773
  - # 4
    frequency:    4.0913241406
  - # 5
    frequency:    4.0913241406
  - # 6
    frequency:    4.1198812750
  - # 7
    frequency:    4.1198812750
  - # 8
    frequency:    4.2374161083
  - # 9
    frequency:    4.2374161083
  - # 10
    frequency:    9.3197861119
  - # 11
    frequency:    9.3323577765
  - # 12
    frequency:    9.3323577765

- q-position: [    0.0000000,    0.0800000,    0.0000000 ]
  distance:    0.0194128
  band:
  - # 1
    frequency:    0.5163580421
  - # 2
    frequency:    0.5163580421
  - # 3
    frequency:    1.1762320325
  - # 4
    frequency:    4.0873947806
  - # 5
    frequency:    4.0873947806
  - # 6
    frequency:    4.1198812750
  - # 7
    frequency:    4.1198812750
  - # 8
    frequency:    4.2532714335
  - # 9
    frequency:    4.2532714335
  - # 10
    frequency:    9.3108352702
  - # 11
    frequency:    9.3251423075
  - # 12
    frequency:    9.3251423075

- q-position: [    0.0000000,    0.0850000,    0.0000000 ]
  distance:    0.0206261
  band:
  - # 1
    frequency:    0.5484441099
  - # 2
    frequency:    0.5484441099
  - # 3
    frequency:    1.2493221321
  - # 4
    frequency:    4.0832132909
  - # 5
    frequency:    4.0832132909
  - # 6
    frequency:    4.1198812750
  - # 7
    frequency:    4.1198812750
  - # 8
    frequency:    4.2700628296
  - # 9
    frequency:    4.2700628296
  - # 10
    frequency:    9.3013100923
  - # 11
    frequency:    9.3174653407
  - # 12
    frequency:    9.3174653407

- q-position: [    0.0000000,    0.0900000,    0.0000000 ]
  distance:    0.0218394
  band:
  - # 1
    frequency:    0.5804963471
  - # 2
    frequency:    0.5804963471
  - # 3
    frequency:    1.3223351677
  - # 4
    frequency:    4.0787799293
  - # 5
    frequency:    4.0787799293
  - # 6
    frequency:    4.1198812750
  - # 7
    frequency:    4.1198812750
  - # 8
    frequency:    4.2877751815
  - # 9
    frequency:    4.2877751815
  - # 10
    frequency:    9.2912111658
  - # 11
    frequency:    9.3093276307
  - # 12
    frequency:    9.3093276307

- q-position: [    0.0000000,    0.0950000,    0.0000000 ]
  distance:    0.0230527
  band:
  - # 1
    frequency:    0.6125127765
  - # 2
    frequency:    0.6125127765
  - # 3
    frequency:    1.3952666354
  - # 4
    frequency:    4.0740949693
  - # 5
    frequency:    4.0740949693
  - # 6
    frequency:    4.1198812750
  - # 7
    frequency:    4.1198812750
  - # 8
    frequency:    4.3063927831
  - # 9
    frequency:    4.3063927831
  - # 10
    frequency:    9.2805391136
  - # 11
    frequency:    9.3007299789
  - # 12
    frequency:    9.3007299789

- q-position: [    0.0000000,    0.1000000,    0.0000000 ]
  distance:    0.0242660
  band:
  - # 1
    frequency:    0.6444914233
  - # 2
    frequency:    0.6444914233
  - # 3
    frequency:    1.4681120365
  - # 4
    frequency:    4.0691587000
  - # 5
    frequency:    4.0691587000
  - # 6
    frequency:    4.1198812750
  - # 7
    frequency:    4.1198812750
  - # 8
    frequency:    4.3258993836
  - # 9
    frequency:    4.3258993836
  - # 10
    frequency:    9.2692945940
  - # 11
    frequency:    9.2916732328
  - # 12
    frequency:    9.2916732328

- q-position: [    0.0000000,    0.1050000,    0.0000000 ]
  distance:    0.0254793
  band:
  - # 1
    frequency:    0.6764303148
  - # 2
    frequency:    0.6764303148
  - # 3
    frequency:    1.5408668775
  - # 4
    frequency:    4.0639714258
  - # 5
    frequency:    4.0639714258
  - # 6
    frequency:    4.1198812750
  - # 7
    frequency:    4.1198812750
  - # 8
    frequency:    4.3462782336
  - # 9
    frequency:    4.3462782336
  - # 10
    frequency:    9.2574783007
  - # 11
    frequency:    9.2821582867
  - # 12
    frequency:    9.2821582867

- q-position: [    0.0000000,    0.1100000,    0.0000000 ]
  distance:    0.0266926
  band:
  - # 1
    frequency:    0.7083274809
  - # 2
    frequency:    0.7083274809
  - # 3
    frequency:    1.6135266706
  - # 4
    frequency:    4.0585334667
  - # 5
    frequency:    4.0585334667
  - # 6
    frequency:    4.1198812750
  - # 7
    frequency:    4.1198812750
  - # 8
    frequency:    4.3675121313
  - # 9
    frequency:    4.3675121313
  - # 10
    frequency:    9.2450909625
  - # 11
    frequency:    9.2721860813
  - # 12
    frequency:    9.2721860813

- q-position: [    0.0000000,    0.1150000,    0.0000000 ]
  distance:    0.0279058
  band:
  - # 1
    frequency:    0.7401809540
  - # 2
    frequency:    0.7401809540
  - # 3
    frequency:    1.6860869337
  - # 4
    frequency:    4.0528451581
  - # 5
    frequency:    4.0528451581
  - # 6
    frequency:    4.1198812750
  - # 7
    frequency:    4.1198812750
  - # 8
    frequency:    4.3895834681
  - # 9
    frequency:    4.3895834681
  - # 10
    frequency:    9.2321333436
  - # 11
    frequency:    9.2617576042
  - # 12
    frequency:    9.2617576042

- q-position: [    0.0000000,    0.1200000,    0.0000000 ]
  distance:    0.0291191
  band:
  - # 1
    frequency:    0.7719887693
  - # 2
    frequency:    0.7719887693
  - # 3
    frequency:    1.7585431911
  - # 4
    frequency:    4.0469068510
  - # 5
    frequency:    4.0469068510
  - # 6
    frequency:    4.1198812750
  - # 7
    frequency:    4.1198812750
  - # 8
    frequency:    4.4124742736
  - # 9
    frequency:    4.4124742736
  - # 10
    frequency:    9.2186062432
  - # 11
    frequency:    9.2508738899
  - # 12
    frequency:    9.2508738899

- q-position: [    0.0000000,    0.1250000,    0.0000000 ]
  distance:    0.0303324
  band:
  - # 1
    frequency:    0.8037489646
  - # 2
    frequency:    0.8037489646
  - # 3
    frequency:    1.8308909733
  - # 4
    frequency:    4.0407189116
  - # 5
    frequency:    4.0407189116
  - # 6
    frequency:    4.1198812750
  - # 7
    frequency:    4.1198812750
  - # 8
    frequency:    4.4361662591
  - # 9
    frequency:    4.4361662591
  - # 10
    frequency:    9.2045104958
  - # 11
    frequency:    9.2395360200
  - # 12
    frequency:    9.2395360200

- q-position: [    0.0000000,    0.1300000,    0.0000000 ]
  distance:    0.0315457
  band:
  - # 1
    frequency:    0.8354595810
  - # 2
    frequency:    0.8354595810
  - # 3
    frequency:    1.9031258175
  - # 4
    frequency:    4.0342817216
  - # 5
    frequency:    4.0342817216
  - # 6
    frequency:    4.1198812750
  - # 7
    frequency:    4.1198812750
  - # 8
    frequency:    4.4606408605
  - # 9
    frequency:    4.4606408605
  - # 10
    frequency:    9.1898469707
  - # 11
    frequency:    9.2277451231
  - # 12
    frequency:    9.2277451231

- q-position: [    0.0000000,    0.1350000,    0.0000000 ]
  distance:    0.0327590
  band:
  - # 1
    frequency:    0.8671186622
  - # 2
    frequency:    0.8671186622
  - # 3
    frequency:    1.9752432679
  - # 4
    frequency:    4.0275956781
  - # 5
    frequency:    4.0275956781
  - # 6
    frequency:    4.1198812750
  - # 7
    frequency:    4.1198812750
  - # 8
    frequency:    4.4858792798
  - # 9
    frequency:    4.4858792798
  - # 10
    frequency:    9.1746165727
  - # 11
    frequency:    9.2155023753
  - # 12
    frequency:    9.2155023753

- q-position: [    0.0000000,    0.1400000,    0.0000000 ]
  distance:    0.0339723
  band:
  - # 1
    frequency:    0.8987242555
  - # 2
    frequency:    0.8987242555
  - # 3
    frequency:    2.0472388760
  - # 4
    frequency:    4.0206611935
  - # 5
    frequency:    4.0206611935
  - # 6
    frequency:    4.1198812750
  - # 7
    frequency:    4.1198812750
  - # 8
    frequency:    4.5118625254
  - # 9
    frequency:    4.5118625254
  - # 10
    frequency:    9.1588202410
  - # 11
    frequency:    9.2028090002
  - # 12
    frequency:    9.2028090002

- q-position: [    0.0000000,    0.1450000,    0.0000000 ]
  distance:    0.0351856
  band:
  - # 1
    frequency:    0.9302744113
  - # 2
    frequency:    0.9302744113
  - # 3
    frequency:    2.1191082007
  - # 4
    frequency:    4.0134786956
  - # 5
    frequency:    4.0134786956
  - # 6
    frequency:    4.1198812750
  - # 7
    frequency:    4.1198812750
  - # 8
    frequency:    4.5385714500
  - # 9
    frequency:    4.5385714500
  - # 10
    frequency:    9.1424589502
  - # 11
    frequency:    9.1896662690
  - # 12
    frequency:    9.1896662690

- q-position: [    0.0000000,    0.1500000,    0.0000000 ]
  distance:    0.0363989
  band:
  - # 1
    frequency:    0.9617671833
  - # 2
    frequency:    0.9617671833
  - # 3
    frequency:    2.1908468089
  - # 4
    frequency:    4.0060486274
  - # 5
    frequency:    4.0060486274
  - # 6
    frequency:    4.1198812750
  - # 7
    frequency:    4.1198812750
  - # 8
    frequency:    4.5659867877
  - # 9
    frequency:    4.5659867877
  - # 10
    frequency:    9.1255337095
  - # 11
    frequency:    9.1760755008
  - # 12
    frequency:    9.1760755008

- q-position: [    0.0000000,    0.1550000,    0.0000000 ]
  distance:    0.0376122
  band:
  - # 1
    frequency:    0.9932006290
  - # 2
    frequency:    0.9932006290
  - # 3
    frequency:    2.2624502753
  - # 4
    frequency:    3.9983714473
  - # 5
    frequency:    3.9983714473
  - # 6
    frequency:    4.1198812750
  - # 7
    frequency:    4.1198812750
  - # 8
    frequency:    4.5940891893
  - # 9
    frequency:    4.5940891893
  - # 10
    frequency:    9.1080455628
  - # 11
    frequency:    9.1620380628
  - # 12
    frequency:    9.1620380628

- q-position: [    0.0000000,    0.1600000,    0.0000000 ]
  distance:    0.0388255
  band:
  - # 1
    frequency:    1.0245728094
  - # 2
    frequency:    1.0245728094
  - # 3
    frequency:    2.3339141832
  - # 4
    frequency:    3.9904476288
  - # 5
    frequency:    3.9904476288
  - # 6
    frequency:    4.1198812750
  - # 7
    frequency:    4.1198812750
  - # 8
    frequency:    4.6228592552
  - # 9
    frequency:    4.6228592552
  - # 10
    frequency:    9.0899955890
  - # 11
    frequency:    9.1475553701
  - # 12
    frequency:    9.1475553701

- q-position: [    0.0000000,    0.1650000,    0.0000000 ]
  distance:    0.0400388
  band:
  - # 1
    frequency:    1.0558817894
  - # 2
    frequency:    1.0558817894
  - # 3
    frequency:    2.4052341242
  - # 4
    frequency:    3.9822776607
  - # 5
    frequency:    3.9822776607
  - # 6
    frequency:    4.1198812750
  - # 7
    frequency:    4.1198812750
  - # 8
    frequency:    4.6522775669
  - # 9
    frequency:    4.6522775669
  - # 10
    frequency:    9.0713849014
  - # 11
    frequency:    9.1326288868
  - # 12
    frequency:    9.1326288868

- q-position: [    0.0000000,    0.1700000,    0.0000000 ]
  distance:    0.0412521
  band:
  - # 1
    frequency:    1.0871256375
  - # 2
    frequency:    1.0871256375
  - # 3
    frequency:    2.4764056991
  - # 4
    frequency:    3.9738620470
  - # 5
    frequency:    3.9738620470
  - # 6
    frequency:    4.1198812750
  - # 7
    frequency:    4.1198812750
  - # 8
    frequency:    4.6823247169
  - # 9
    frequency:    4.6823247169
  - # 10
    frequency:    9.0522146481
  - # 11
    frequency:    9.1172601251
  - # 12
    frequency:    9.1172601251

- q-position: [    0.0000000,    0.1750000,    0.0000000 ]
  distance:    0.0424654
  band:
  - # 1
    frequency:    1.1183024267
  - # 2
    frequency:    1.1183024267
  - # 3
    frequency:    2.5474245176
  - # 4
    frequency:    3.9652013067
  - # 5
    frequency:    3.9652013067
  - # 6
    frequency:    4.1198812750
  - # 7
    frequency:    4.1198812750
  - # 8
    frequency:    4.7129813362
  - # 9
    frequency:    4.7129813362
  - # 10
    frequency:    9.0324860116
  - # 11
    frequency:    9.1014506463
  - # 12
    frequency:    9.1014506463

- q-position: [    0.0000000,    0.1800000,    0.0000000 ]
  distance:    0.0436787
  band:
  - # 1
    frequency:    1.1494102337
  - # 2
    frequency:    1.1494102337
  - # 3
    frequency:    2.6182861989
  - # 4
    frequency:    3.9562959741
  - # 5
    frequency:    3.9562959741
  - # 6
    frequency:    4.1198812750
  - # 7
    frequency:    4.1198812750
  - # 8
    frequency:    4.7442281200
  - # 9
    frequency:    4.7442281200
  - # 10
    frequency:    9.0122002088
  - # 11
    frequency:    9.0852020610
  - # 12
    frequency:    9.0852020610

- q-position: [    0.0000000,    0.1850000,    0.0000000 ]
  distance:    0.0448920
  band:
  - # 1
    frequency:    1.1804471396
  - # 2
    frequency:    1.1804471396
  - # 3
    frequency:    2.6889863720
  - # 4
    frequency:    3.9471465986
  - # 5
    frequency:    3.9471465986
  - # 6
    frequency:    4.1198812750
  - # 7
    frequency:    4.1198812750
  - # 8
    frequency:    4.7760458519
  - # 9
    frequency:    4.7760458519
  - # 10
    frequency:    8.9913584910
  - # 11
    frequency:    9.0685160287
  - # 12
    frequency:    9.0685160287

- q-position: [    0.0000000,    0.1900000,    0.0000000 ]
  distance:    0.0461053
  band:
  - # 1
    frequency:    1.2114112300
  - # 2
    frequency:    1.2114112300
  - # 3
    frequency:    2.7595206758
  - # 4
    frequency:    3.9377537445
  - # 5
    frequency:    3.9377537445
  - # 6
    frequency:    4.1198812750
  - # 7
    frequency:    4.1198812750
  - # 8
    frequency:    4.8084154263
  - # 9
    frequency:    4.8084154263
  - # 10
    frequency:    8.9699621439
  - # 11
    frequency:    9.0513942589
  - # 12
    frequency:    9.0513942589

- q-position: [    0.0000000,    0.1950000,    0.0000000 ]
  distance:    0.0473186
  band:
  - # 1
    frequency:    1.2423005949
  - # 2
    frequency:    1.2423005949
  - # 3
    frequency:    2.8298847593
  - # 4
    frequency:    3.9281179911
  - # 5
    frequency:    3.9281179911
  - # 6
    frequency:    4.1198812750
  - # 7
    frequency:    4.1198812750
  - # 8
    frequency:    4.8413178684
  - # 9
    frequency:    4.8413178684
  - # 10
    frequency:    8.9480124872
  - # 11
    frequency:    9.0338385108
  - # 12
    frequency:    9.0338385108

- q-position: [    0.0000000,    0.2000000,    0.0000000 ]
  distance:    0.0485319
  band:
  - # 1
    frequency:    1.2731133288
  - # 2
    frequency:    1.2731133288
  - # 3
    frequency:    2.9000742822
  - # 4
    frequency:    3.9182399330
  - # 5
    frequency:    3.9182399330
  - # 6
    frequency:    4.1198812750
  - # 7
    frequency:    4.1198812750
  - # 8
    frequency:    4.8747343533
  - # 9
    frequency:    4.8747343533
  - # 10
    frequency:    8.9255108750
  - # 11
    frequency:    9.0158505937
  - # 12
    frequency:    9.0158505937

- q-position: [    0.0000000,    0.2050000,    0.0000000 ]
  distance:    0.0497452
  band:
  - # 1
    frequency:    1.3038475311
  - # 2
    frequency:    1.3038475311
  - # 3
    frequency:    2.9700849149
  - # 4
    frequency:    3.9081201793
  - # 5
    frequency:    3.9081201793
  - # 6
    frequency:    4.1198812750
  - # 7
    frequency:    4.1198812750
  - # 8
    frequency:    4.9086462225
  - # 9
    frequency:    4.9086462225
  - # 10
    frequency:    8.9024586953
  - # 11
    frequency:    8.9974323673
  - # 12
    frequency:    8.9974323673

- q-position: [    0.0000000,    0.2100000,    0.0000000 ]
  distance:    0.0509585
  band:
  - # 1
    frequency:    1.3345013059
  - # 2
    frequency:    1.3345013059
  - # 3
    frequency:    3.0399123388
  - # 4
    frequency:    3.8977593544
  - # 5
    frequency:    3.8977593544
  - # 6
    frequency:    4.1198812750
  - # 7
    frequency:    4.1198812750
  - # 8
    frequency:    4.9430350001
  - # 9
    frequency:    4.9430350001
  - # 10
    frequency:    8.8788573699
  - # 11
    frequency:    8.9785857422
  - # 12
    frequency:    8.9785857422

- q-position: [    0.0000000,    0.2150000,    0.0000000 ]
  distance:    0.0521718
  band:
  - # 1
    frequency:    1.3650727624
  - # 2
    frequency:    1.3650727624
  - # 3
    frequency:    3.1095522465
  - # 4
    frequency:    3.8871580973
  - # 5
    frequency:    3.8871580973
  - # 6
    frequency:    4.1198812750
  - # 7
    frequency:    4.1198812750
  - # 8
    frequency:    4.9778824059
  - # 9
    frequency:    4.9778824059
  - # 10
    frequency:    8.8547083548
  - # 11
    frequency:    8.9593126799
  - # 12
    frequency:    8.9593126799

- q-position: [    0.0000000,    0.2200000,    0.0000000 ]
  distance:    0.0533851
  band:
  - # 1
    frequency:    1.3955600148
  - # 2
    frequency:    1.3955600148
  - # 3
    frequency:    3.1790003424
  - # 4
    frequency:    3.8763170620
  - # 5
    frequency:    3.8763170620
  - # 6
    frequency:    4.1198812750
  - # 7
    frequency:    4.1198812750
  - # 8
    frequency:    5.0131703684
  - # 9
    frequency:    5.0131703684
  - # 10
    frequency:    8.8300131396
  - # 11
    frequency:    8.9396151931
  - # 12
    frequency:    8.9396151931

- q-position: [    0.0000000,    0.2250000,    0.0000000 ]
  distance:    0.0545984
  band:
  - # 1
    frequency:    1.4259611824
  - # 2
    frequency:    1.4259611824
  - # 3
    frequency:    3.2482523426
  - # 4
    frequency:    3.8652369173
  - # 5
    frequency:    3.8652369173
  - # 6
    frequency:    4.1198812750
  - # 7
    frequency:    4.1198812750
  - # 8
    frequency:    5.0488810352
  - # 9
    frequency:    5.0488810352
  - # 10
    frequency:    8.8047732476
  - # 11
    frequency:    8.9194953464
  - # 12
    frequency:    8.9194953464

- q-position: [    0.0000000,    0.2300000,    0.0000000 ]
  distance:    0.0558117
  band:
  - # 1
    frequency:    1.4562743901
  - # 2
    frequency:    1.4562743901
  - # 3
    frequency:    3.3173039753
  - # 4
    frequency:    3.8539183464
  - # 5
    frequency:    3.8539183464
  - # 6
    frequency:    4.1198812750
  - # 7
    frequency:    4.1198812750
  - # 8
    frequency:    5.0849967832
  - # 9
    frequency:    5.0849967832
  - # 10
    frequency:    8.7789902357
  - # 11
    frequency:    8.8989552565
  - # 12
    frequency:    8.8989552565

- q-position: [    0.0000000,    0.2350000,    0.0000000 ]
  distance:    0.0570250
  band:
  - # 1
    frequency:    1.4864977679
  - # 2
    frequency:    1.4864977679
  - # 3
    frequency:    3.3861509810
  - # 4
    frequency:    3.8423620478
  - # 5
    frequency:    3.8423620478
  - # 6
    frequency:    4.1198812750
  - # 7
    frequency:    4.1198812750
  - # 8
    frequency:    5.1215002267
  - # 9
    frequency:    5.1215002267
  - # 10
    frequency:    8.7526656943
  - # 11
    frequency:    8.8779970923
  - # 12
    frequency:    8.8779970923

- q-position: [    0.0000000,    0.2400000,    0.0000000 ]
  distance:    0.0582383
  band:
  - # 1
    frequency:    1.5166294515
  - # 2
    frequency:    1.5166294515
  - # 3
    frequency:    3.4547891130
  - # 4
    frequency:    3.8305687342
  - # 5
    frequency:    3.8305687342
  - # 6
    frequency:    4.1198812750
  - # 7
    frequency:    4.1198812750
  - # 8
    frequency:    5.1583742247
  - # 9
    frequency:    5.1583742247
  - # 10
    frequency:    8.7258012473
  - # 11
    frequency:    8.8566230754
  - # 12
    frequency:    8.8566230754

- q-position: [    0.0000000,    0.2450000,    0.0000000 ]
  distance:    0.0594516
  band:
  - # 1
    frequency:    1.5466675822
  - # 2
    frequency:    1.5466675822
  - # 3
    frequency:    3.5232141373
  - # 4
    frequency:    3.8185391330
  - # 5
    frequency:    3.8185391330
  - # 6
    frequency:    4.1198812750
  - # 7
    frequency:    4.1198812750
  - # 8
    frequency:    5.1956018870
  - # 9
    frequency:    5.1956018870
  - # 10
    frequency:    8.6983985517
  - # 11
    frequency:    8.8348354809
  - # 12
    frequency:    8.8348354809

- q-position: [    0.0000000,    0.2500000,    0.0000000 ]
  distance:    0.0606649
  band:
  - # 1
    frequency:    1.5766103073
  - # 2
    frequency:    1.5766103073
  - # 3
    frequency:    3.5914218332
  - # 4
    frequency:    3.8062739864
  - # 5
    frequency:    3.8062739864
  - # 6
    frequency:    4.1198812750
  - # 7
    frequency:    4.1198812750
  - # 8
    frequency:    5.2331665790
  - # 9
    frequency:    5.2331665790
  - # 10
    frequency:    8.6704592980
  - # 11
    frequency:    8.8126366372
  - # 12
    frequency:    8.8126366372

- q-position: [    0.0000000,    0.2550000,    0.0000000 ]