4    
1    

1    
  0.0100000000000000   0.0000000000000000   0.0000000000000000
  -0.0336777819    0.0000000017    0.0000000019
  -0.0149392886   -0.0000000009   -0.0000000014
   0.0243085405    0.0000000009   -0.0000000021
   0.0243085300   -0.0000000017    0.0000000015
