mesh: [    16,    16,    16 ]
nqpoint: 120    
reciprocal_lattice:
- [   0.24265955,   0.00000000,   0.00000000 ] # a*
- [   0.00000000,   0.24265955,   0.00000000 ] # b*
- [   0.00000000,   0.00000000,   0.24265955 ] # c*
natom:   4      
lattice:
- [     4.121000000000000,     0.000000000000000,     0.000000000000000 ] # a
- [     0.000000000000000,     4.121000000000000,     0.000000000000000 ] # b
- [     0.000000000000000,     0.000000000000000,     4.121000000000000 ] # c
points:
- symbol: Al # 1
  coordinates: [  0.000000000000000,  0.000000000000000,  0.000000000000000 ]
  mass: 26.981539
- symbol: Al # 2
  coordinates: [  0.000000000000000,  0.500000000000000,  0.500000000000000 ]
  mass: 26.981539
- symbol: Al # 3
  coordinates: [  0.500000000000000,  0.000000000000000,  0.500000000000000 ]
  mass: 26.981539
- symbol: Al # 4
  coordinates: [  0.500000000000000,  0.500000000000000,  0.000000000000000 ]
  mass: 26.981539

phonon:
- q-position: [    0.0312500,    0.0312500,    0.0312500 ]
  distance_from_gamma:  0.013134333
  weight: 8    
  band:
  - # 1
    frequency:     0.5413661969
  - # 2
    frequency:     0.5413661969
  - # 3
    frequency:     0.5413661969
  - # 4
    frequency:     4.1356292520
  - # 5
    frequency:     4.1356292520
  - # 6
    frequency:     4.1356292520
  - # 7
    frequency:     4.1356292520
  - # 8
    frequency:     4.1356292520
  - # 9
    frequency:     4.1356292520
  - # 10
    frequency:     9.3553237616
  - # 11
    frequency:     9.3553237616
  - # 12
    frequency:     9.3553237616

- q-position: [    0.0937500,    0.0312500,    0.0312500 ]
  distance_from_gamma:  0.025150334
  weight: 24   
  band:
  - # 1
    frequency:     0.7849099045
  - # 2
    frequency:     0.7849099045
  - # 3
    frequency:     1.4032669871
  - # 4
    frequency:     4.0963914743
  - # 5
    frequency:     4.0963914743
  - # 6
    frequency:     4.1356292520
  - # 7
    frequency:     4.1356292520
  - # 8
    frequency:     4.2961033494
  - # 9
    frequency:     4.2961033494
  - # 10
    frequency:     9.2653117490
  - # 11
    frequency:     9.2827263239
  - # 12
    frequency:     9.2827263239

- q-position: [    0.1562500,    0.0312500,    0.0312500 ]
  distance_from_gamma:  0.039403000
  weight: 24   
  band:
  - # 1
    frequency:     1.1178922172
  - # 2
    frequency:     1.1178922172
  - # 3
    frequency:     2.2927950508
  - # 4
    frequency:     4.0183110457
  - # 5
    frequency:     4.0183110457
  - # 6
    frequency:     4.1356292520
  - # 7
    frequency:     4.1356292520
  - # 8
    frequency:     4.5946333309
  - # 9
    frequency:     4.5946333309
  - # 10
    frequency:     9.0861571029
  - # 11
    frequency:     9.1386463192
  - # 12
    frequency:     9.1386463192

- q-position: [    0.2187500,    0.0312500,    0.0312500 ]
  distance_from_gamma:  0.054154244
  weight: 24   
  band:
  - # 1
    frequency:     1.4729313768
  - # 2
    frequency:     1.4729313768
  - # 3
    frequency:     3.1670149446
  - # 4
    frequency:     3.9021762939
  - # 5
    frequency:     3.9021762939
  - # 6
    frequency:     4.1356292520
  - # 7
    frequency:     4.1356292520
  - # 8
    frequency:     4.9963873077
  - # 9
    frequency:     4.9963873077
  - # 10
    frequency:     8.8195904885
  - # 11
    frequency:     8.9253361766
  - # 12
    frequency:     8.9253361766

- q-position: [    0.2812500,    0.0312500,    0.0312500 ]
  distance_from_gamma:  0.069085428
  weight: 24   
  band:
  - # 1
    frequency:     1.8276394529
  - # 2
    frequency:     1.8276394529
  - # 3
    frequency:     3.7491653337
  - # 4
    frequency:     3.7491653337
  - # 5
    frequency:     4.0130979558
  - # 6
    frequency:     4.1356292520
  - # 7
    frequency:     4.1356292520
  - # 8
    frequency:     5.4651732400
  - # 9
    frequency:     5.4651732400
  - # 10
    frequency:     8.4681878133
  - # 11
    frequency:     8.6462357966
  - # 12
    frequency:     8.6462357966

- q-position: [    0.3437500,    0.0312500,    0.0312500 ]
  distance_from_gamma:  0.084100768
  weight: 24   
  band:
  - # 1
    frequency:     2.1718447340
  - # 2
    frequency:     2.1718447340
  - # 3
    frequency:     3.5608421926
  - # 4
    frequency:     3.5608421926
  - # 5
    frequency:     4.1356292520
  - # 6
    frequency:     4.1356292520
  - # 7
    frequency:     4.8216559423
  - # 8
    frequency:     5.9694962758
  - # 9
    frequency:     5.9694962758
  - # 10
    frequency:     8.0353465399
  - # 11
    frequency:     8.3060596077
  - # 12
    frequency:     8.3060596077

- q-position: [    0.4062500,    0.0312500,    0.0312500 ]
  distance_from_gamma:  0.099162042
  weight: 24   
  band:
  - # 1
    frequency:     2.4993106923
  - # 2
    frequency:     2.4993106923
  - # 3
    frequency:     3.3391544937
  - # 4
    frequency:     3.3391544937
  - # 5
    frequency:     4.1356292520
  - # 6
    frequency:     4.1356292520
  - # 7
    frequency:     5.5844157132
  - # 8
    frequency:     6.4840245397
  - # 9
    frequency:     6.4840245397
  - # 10
    frequency:     7.5252548917
  - # 11
    frequency:     7.9109378561
  - # 12
    frequency:     7.9109378561

- q-position: [    0.4687500,    0.0312500,    0.0312500 ]
  distance_from_gamma:  0.114251086
  weight: 24   
  band:
  - # 1
    frequency:     2.8054261276
  - # 2
    frequency:     2.8054261276
  - # 3
    frequency:     3.0864366042
  - # 4
    frequency:     3.0864366042
  - # 5
    frequency:     4.1356292520
  - # 6
    frequency:     4.1356292520
  - # 7
    frequency:     6.2938006362
  - # 8
    frequency:     6.9428548592
  - # 9
    frequency:     6.9889155096
  - # 10
    frequency:     6.9889155096
  - # 11
    frequency:     7.4686392331
  - # 12
    frequency:     7.4686392331

- q-position: [    0.0937500,    0.0937500,    0.0312500 ]
  distance_from_gamma:  0.033054014
  weight: 24   
  band:
  - # 1
    frequency:     0.9792253235
  - # 2
    frequency:     1.5033160054
  - # 3
    frequency:     1.5033160054
  - # 4
    frequency:     4.1003205405
  - # 5
    frequency:     4.1003205405
  - # 6
    frequency:     4.2560198910
  - # 7
    frequency:     4.2560198910
  - # 8
    frequency:     4.2923534995
  - # 9
    frequency:     4.2923534995
  - # 10
    frequency:     9.1937550844
  - # 11
    frequency:     9.1937550844
  - # 12
    frequency:     9.2106311295

- q-position: [    0.1562500,    0.0937500,    0.0312500 ]
  distance_from_gamma:  0.044862289
  weight: 48   
  band:
  - # 1
    frequency:     1.2772259101
  - # 2
    frequency:     1.6823748843
  - # 3
    frequency:     2.3419087745
  - # 4
    frequency:     4.0301615719
  - # 5
    frequency:     4.1080167656
  - # 6
    frequency:     4.1762760351
  - # 7
    frequency:     4.2849883726
  - # 8
    frequency:     4.5529147180
  - # 9
    frequency:     4.5842422285
  - # 10
    frequency:     9.0166820314
  - # 11
    frequency:     9.0517486877
  - # 12
    frequency:     9.0675464535

- q-position: [    0.2187500,    0.0937500,    0.0312500 ]
  distance_from_gamma:  0.058246980
  weight: 48   
  band:
  - # 1
    frequency:     1.6147798806
  - # 2
    frequency:     1.9127247043
  - # 3
    frequency:     3.1884005291
  - # 4
    frequency:     3.9260758720
  - # 5
    frequency:     4.0577177680
  - # 6
    frequency:     4.1191643613
  - # 7
    frequency:     4.2742732791
  - # 8
    frequency:     4.9523629619
  - # 9
    frequency:     4.9776293759
  - # 10
    frequency:     8.7532390365
  - # 11
    frequency:     8.8415291048
  - # 12
    frequency:     8.8557061949

- q-position: [    0.2812500,    0.0937500,    0.0312500 ]
  distance_from_gamma:  0.072338268
  weight: 48   
  band:
  - # 1
    frequency:     1.9621394493
  - # 2
    frequency:     2.1708353344
  - # 3
    frequency:     3.7894671787
  - # 4
    frequency:     3.9016145797
  - # 5
    frequency:     4.0154875921
  - # 6
    frequency:     4.1333090751
  - # 7
    frequency:     4.2605965768
  - # 8
    frequency:     5.4183386101
  - # 9
    frequency:     5.4373061109
  - # 10
    frequency:     8.4060068380
  - # 11
    frequency:     8.5665123225
  - # 12
    frequency:     8.5785218903

- q-position: [    0.3437500,    0.0937500,    0.0312500 ]
  distance_from_gamma:  0.086792671
  weight: 48   
  band:
  - # 1
    frequency:     2.3045584811
  - # 2
    frequency:     2.4396538672
  - # 3
    frequency:     3.6222474454
  - # 4
    frequency:     3.7096627548
  - # 5
    frequency:     4.1498798231
  - # 6
    frequency:     4.2444580990
  - # 7
    frequency:     4.8093963020
  - # 8
    frequency:     5.9195274764
  - # 9
    frequency:     5.9324367972
  - # 10
    frequency:     7.9783957518
  - # 11
    frequency:     8.2313804895
  - # 12
    frequency:     8.2406690003

- q-position: [    0.4062500,    0.0937500,    0.0312500 ]
  distance_from_gamma:  0.101455109
  weight: 48   
  band:
  - # 1
    frequency:     2.6333181405
  - # 2
    frequency:     2.7072203004
  - # 3
    frequency:     3.4268857279
  - # 4
    frequency:     3.4839952810
  - # 5
    frequency:     4.1682149861
  - # 6
    frequency:     4.2264537060
  - # 7
    frequency:     5.5601359693
  - # 8
    frequency:     6.4307669635
  - # 9
    frequency:     6.4380883165
  - # 10
    frequency:     7.4746223695
  - # 11
    frequency:     7.8422222581
  - # 12
    frequency:     7.8482270213

- q-position: [    0.4687500,    0.0937500,    0.0312500 ]
  distance_from_gamma:  0.116246889
  weight: 48   
  band:
  - # 1
    frequency:     2.9424020377
  - # 2
    frequency:     2.9649613784
  - # 3
    frequency:     3.2064920976
  - # 4
    frequency:     3.2272058806
  - # 5
    frequency:     4.1875916433
  - # 6
    frequency:     4.2072560332
  - # 7
    frequency:     6.2593475688
  - # 8
    frequency:     6.8996854694
  - # 9
    frequency:     6.9323607816
  - # 10
    frequency:     6.9346549547
  - # 11
    frequency:     7.4067531197
  - # 12
    frequency:     7.4089003981

- q-position: [    0.1562500,    0.1562500,    0.0312500 ]
  distance_from_gamma:  0.054154244
  weight: 24   
  band:
  - # 1
    frequency:     1.5426880759
  - # 2
    frequency:     2.4353735309
  - # 3
    frequency:     2.4353735309
  - # 4
    frequency:     4.0533065786
  - # 5
    frequency:     4.0533065786
  - # 6
    frequency:     4.4699498829
  - # 7
    frequency:     4.4699498829
  - # 8
    frequency:     4.5637906268
  - # 9
    frequency:     4.5637906268
  - # 10
    frequency:     8.8788228568
  - # 11
    frequency:     8.8788228568
  - # 12
    frequency:     8.9264342407

- q-position: [    0.2187500,    0.1562500,    0.0312500 ]
  distance_from_gamma:  0.065671667
  weight: 48   
  band:
  - # 1
    frequency:     1.8618960507
  - # 2
    frequency:     2.5650092966
  - # 3
    frequency:     3.2299386022
  - # 4
    frequency:     3.9725389568
  - # 5
    frequency:     4.0866746378
  - # 6
    frequency:     4.3466862725
  - # 7
    frequency:     4.5339353227
  - # 8
    frequency:     4.8648490280
  - # 9
    frequency:     4.9406275101
  - # 10
    frequency:     8.6216028779
  - # 11
    frequency:     8.6747841480
  - # 12
    frequency:     8.7175067618

- q-position: [    0.2812500,    0.1562500,    0.0312500 ]
  distance_from_gamma:  0.078440309
  weight: 48   
  band:
  - # 1
    frequency:     2.2022382388
  - # 2
    frequency:     2.7210863679
  - # 3
    frequency:     3.8673023458
  - # 4
    frequency:     4.0201709066
  - # 5
    frequency:     4.1287540971
  - # 6
    frequency:     4.1845531654
  - # 7
    frequency:     4.4956499765
  - # 8
    frequency:     5.3252728805
  - # 9
    frequency:     5.3822236862
  - # 10
    frequency:     8.2826786391
  - # 11
    frequency:     8.4079336581
  - # 12
    frequency:     8.4441191936

- q-position: [    0.3437500,    0.1562500,    0.0312500 ]
  distance_from_gamma:  0.091940333
  weight: 48   
  band:
  - # 1
    frequency:     2.5448615110
  - # 2
    frequency:     2.8938647973
  - # 3
    frequency:     3.7397707136
  - # 4
    frequency:     3.9854759245
  - # 5
    frequency:     4.1776921296
  - # 6
    frequency:     4.4502098351
  - # 7
    frequency:     4.7852569217
  - # 8
    frequency:     5.8202641887
  - # 9
    frequency:     5.8590611806
  - # 10
    frequency:     7.8654850932
  - # 11
    frequency:     8.0828882394
  - # 12
    frequency:     8.1108695577

- q-position: [    0.4062500,    0.1562500,    0.0312500 ]
  distance_from_gamma:  0.105892381
  weight: 48   
  band:
  - # 1
    frequency:     2.8781162664
  - # 2
    frequency:     3.0744784910
  - # 3
    frequency:     3.5927594497
  - # 4
    frequency:     3.7519042115
  - # 5
    frequency:     4.2314053683
  - # 6
    frequency:     4.3991689801
  - # 7
    frequency:     5.5121989058
  - # 8
    frequency:     6.3249960415
  - # 9
    frequency:     6.3470155585
  - # 10
    frequency:     7.3742933750
  - # 11
    frequency:     7.7056520625
  - # 12
    frequency:     7.7237364846

- q-position: [    0.4687500,    0.1562500,    0.0312500 ]
  distance_from_gamma:  0.120139071
  weight: 48   
  band:
  - # 1
    frequency:     3.1940729021
  - # 2
    frequency:     3.2552694250
  - # 3
    frequency:     3.4298045754
  - # 4
    frequency:     3.4868663225
  - # 5
    frequency:     4.2876907740
  - # 6
    frequency:     4.3443281336
  - # 7
    frequency:     6.1912085722
  - # 8
    frequency:     6.8142113244
  - # 9
    frequency:     6.8200626136
  - # 10
    frequency:     6.8269664923
  - # 11
    frequency:     7.2838320080
  - # 12
    frequency:     7.2902967124

- q-position: [    0.2187500,    0.2187500,    0.0312500 ]
  distance_from_gamma:  0.075451001
  weight: 24   
  band:
  - # 1
    frequency:     2.1711607462
  - # 2
    frequency:     3.2893091193
  - # 3
    frequency:     3.2893091193
  - # 4
    frequency:     4.0390417783
  - # 5
    frequency:     4.0390417783
  - # 6
    frequency:     4.7349206945
  - # 7
    frequency:     4.7349206945
  - # 8
    frequency:     4.8864104893
  - # 9
    frequency:     4.8864104893
  - # 10
    frequency:     8.4268379731
  - # 11
    frequency:     8.4268379731
  - # 12
    frequency:     8.5128803416

- q-position: [    0.2812500,    0.2187500,    0.0312500 ]
  distance_from_gamma:  0.086792671
  weight: 48   
  band:
  - # 1
    frequency:     2.5102645196
  - # 2
    frequency:     3.3633580096
  - # 3
    frequency:     3.9775917171
  - # 4
    frequency:     4.0269603320
  - # 5
    frequency:     4.1221323362
  - # 6
    frequency:     4.5642069422
  - # 7
    frequency:     4.8165227041
  - # 8
    frequency:     5.1871915864
  - # 9
    frequency:     5.3012379096
  - # 10
    frequency:     8.1002927843
  - # 11
    frequency:     8.1722385134
  - # 12
    frequency:     8.2450984918

- q-position: [    0.3437500,    0.2187500,    0.0312500 ]
  distance_from_gamma:  0.099162042
  weight: 48   
  band:
  - # 1
    frequency:     2.8579918667
  - # 2
    frequency:     3.4483967318
  - # 3
    frequency:     3.9040969442
  - # 4
    frequency:     4.2177429577
  - # 5
    frequency:     4.3549162402
  - # 6
    frequency:     4.7330233783
  - # 7
    frequency:     4.7499936504
  - # 8
    frequency:     5.6730659987
  - # 9
    frequency:     5.7508703653
  - # 10
    frequency:     7.6986176050
  - # 11
    frequency:     7.8623212689
  - # 12
    frequency:     7.9186443201

- q-position: [    0.4062500,    0.2187500,    0.0312500 ]
  distance_from_gamma:  0.112219793
  weight: 48   
  band:
  - # 1
    frequency:     3.2003549504
  - # 2
    frequency:     3.5404918428
  - # 3
    frequency:     3.8207761620
  - # 4
    frequency:     4.1098833512
  - # 5
    frequency:     4.3214994592
  - # 6
    frequency:     4.6384812580
  - # 7
    frequency:     5.4418535989
  - # 8
    frequency:     6.1682133847
  - # 9
    frequency:     6.2124227547
  - # 10
    frequency:     7.2261595689
  - # 11
    frequency:     7.5029600299
  - # 12
    frequency:     7.5393467446

- q-position: [    0.4687500,    0.2187500,    0.0312500 ]
  distance_from_gamma:  0.125751668
  weight: 48   
  band:
  - # 1
    frequency:     3.5276312544
  - # 2
    frequency:     3.6357075914
  - # 3
    frequency:     3.7302872917
  - # 4
    frequency:     3.8326532196
  - # 5
    frequency:     4.4289877168
  - # 6
    frequency:     4.5359600705
  - # 7
    frequency:     6.0909296139
  - # 8
    frequency:     6.6536586545
  - # 9
    frequency:     6.6675323496
  - # 10
    frequency:     6.6881783128
  - # 11
    frequency:     7.1015926426
  - # 12
    frequency:     7.1145929050

- q-position: [    0.2812500,    0.2812500,    0.0312500 ]
  distance_from_gamma:  0.096814679
  weight: 24   
  band:
  - # 1
    frequency:     2.8546334458
  - # 2
    frequency:     4.0355851106
  - # 3
    frequency:     4.0355851106
  - # 4
    frequency:     4.1136890169
  - # 5
    frequency:     4.1136890169
  - # 6
    frequency:     5.0059417099
  - # 7
    frequency:     5.0059417099
  - # 8
    frequency:     5.1963373557
  - # 9
    frequency:     5.1963373557
  - # 10
    frequency:     7.8620424977
  - # 11
    frequency:     7.8620424977
  - # 12
    frequency:     7.9846215782

- q-position: [    0.3437500,    0.2812500,    0.0312500 ]
  distance_from_gamma:  0.108042699
  weight: 48   
  band:
  - # 1
    frequency:     3.2126884641
  - # 2
    frequency:     4.0457032559
  - # 3
    frequency:     4.1037385002
  - # 4
    frequency:     4.2681744642
  - # 5
    frequency:     4.7047297563
  - # 6
    frequency:     4.7840377659
  - # 7
    frequency:     5.0702116312
  - # 8
    frequency:     5.4800025701
  - # 9
    frequency:     5.6101526922
  - # 10
    frequency:     7.4808540516
  - # 11
    frequency:     7.5723061824
  - # 12
    frequency:     7.6670206718

- q-position: [    0.4062500,    0.2812500,    0.0312500 ]
  distance_from_gamma:  0.120139071
  weight: 48   
  band:
  - # 1
    frequency:     3.5686478769
  - # 2
    frequency:     4.0569163387
  - # 3
    frequency:     4.0926537031
  - # 4
    frequency:     4.4335203056
  - # 5
    frequency:     4.5247250572
  - # 6
    frequency:     4.9262822637
  - # 7
    frequency:     5.3509836355
  - # 8
    frequency:     5.9627074805
  - # 9
    frequency:     6.0367799885
  - # 10
    frequency:     7.0331098067
  - # 11
    frequency:     7.2367756301
  - # 12
    frequency:     7.2979280383

- q-position: [    0.4687500,    0.2812500,    0.0312500 ]
  distance_from_gamma:  0.132866837
  weight: 48   
  band:
  - # 1
    frequency:     3.9112414324
  - # 2
    frequency:     4.0687862684
  - # 3
    frequency:     4.0808531969
  - # 4
    frequency:     4.2320887243
  - # 5
    frequency:     4.6025550080
  - # 6
    frequency:     4.7687363777
  - # 7
    frequency:     5.9608592632
  - # 8
    frequency:     6.4356465266
  - # 9
    frequency:     6.4589215894
  - # 10
    frequency:     6.5242483295
  - # 11
    frequency:     6.8626500751
  - # 12
    frequency:     6.8844816751

- q-position: [    0.3437500,    0.3437500,    0.0312500 ]
  distance_from_gamma:  0.118209000
  weight: 24   
  band:
  - # 1
    frequency:     3.5851528427
  - # 2
    frequency:     4.3267237208
  - # 3
    frequency:     4.3267237208
  - # 4
    frequency:     4.6509415369
  - # 5
    frequency:     4.6509415369
  - # 6
    frequency:     5.2438987815
  - # 7
    frequency:     5.2438987815
  - # 8
    frequency:     5.4400316866
  - # 9
    frequency:     5.4400316866
  - # 10
    frequency:     7.2163895804
  - # 11
    frequency:     7.2163895804
  - # 12
    frequency:     7.3601459834

- q-position: [    0.4062500,    0.3437500,    0.0312500 ]
  distance_from_gamma:  0.129358181
  weight: 48   
  band:
  - # 1
    frequency:     3.9581153548
  - # 2
    frequency:     4.3908645738
  - # 3
    frequency:     4.5617251225
  - # 4
    frequency:     4.5904361046
  - # 5
    frequency:     4.9684120375
  - # 6
    frequency:     5.2421171366
  - # 7
    frequency:     5.2445349474
  - # 8
    frequency:     5.7116066921
  - # 9
    frequency:     5.8234727833
  - # 10
    frequency:     6.7990987404
  - # 11
    frequency:     6.9106720418
  - # 12
    frequency:     7.0034114774

- q-position: [    0.4687500,    0.3437500,    0.0312500 ]
  distance_from_gamma:  0.141257705
  weight: 48   
  band:
  - # 1
    frequency:     4.3189489733
  - # 2
    frequency:     4.4579463823
  - # 3
    frequency:     4.5253187057
  - # 4
    frequency:     4.6581622022
  - # 5
    frequency:     4.7986239857
  - # 6
    frequency:     5.0286867820
  - # 7
    frequency:     5.8041850075
  - # 8
    frequency:     6.1694436965
  - # 9
    frequency:     6.2046551044
  - # 10
    frequency:     6.3260550230
  - # 11
    frequency:     6.5705767146
  - # 12
    frequency:     6.6036495821

- q-position: [    0.4062500,    0.4062500,    0.0312500 ]
  distance_from_gamma:  0.139619879
  weight: 24   
  band:
  - # 1
    frequency:     4.3501617320
  - # 2
    frequency:     4.7000788108
  - # 3
    frequency:     4.7000788108
  - # 4
    frequency:     5.1184360247
  - # 5
    frequency:     5.1184360247
  - # 6
    frequency:     5.4189686356
  - # 7
    frequency:     5.4189686356
  - # 8
    frequency:     5.5768975368
  - # 9
    frequency:     5.5768975368
  - # 10
    frequency:     6.5292499079
  - # 11
    frequency:     6.5292499079
  - # 12
    frequency:     6.6609060512

- q-position: [    0.4687500,    0.4062500,    0.0312500 ]
  distance_from_gamma:  0.150711348
  weight: 48   
  band:
  - # 1
    frequency:     4.7309368995
  - # 2
    frequency:     4.8426307766
  - # 3
    frequency:     4.9837792215
  - # 4
    frequency:     5.0074878591
  - # 5
    frequency:     5.0899277225
  - # 6
    frequency:     5.3026024086
  - # 7
    frequency:     5.6249818754
  - # 8
    frequency:     5.8594873334
  - # 9
    frequency:     5.9093111336
  - # 10
    frequency:     6.0982842342
  - # 11
    frequency:     6.2300026021
  - # 12
    frequency:     6.2768860660

- q-position: [    0.4687500,    0.4687500,    0.0312500 ]
  distance_from_gamma:  0.161040711
  weight: 24   
  band:
  - # 1
    frequency:     5.1322372004
  - # 2
    frequency:     5.2200796108
  - # 3
    frequency:     5.2200796108
  - # 4
    frequency:     5.4282708678
  - # 5
    frequency:     5.4282708678
  - # 6
    frequency:     5.5113970167
  - # 7
    frequency:     5.5113970167
  - # 8
    frequency:     5.5786915821
  - # 9
    frequency:     5.5786915821
  - # 10
    frequency:     5.8467822892
  - # 11
    frequency:     5.8467822892
  - # 12
    frequency:     5.9102593707

- q-position: [    0.0937500,    0.0937500,    0.0937500 ]
  distance_from_gamma:  0.039403000
  weight: 8    
  band:
  - # 1
    frequency:     1.6032941914
  - # 2
    frequency:     1.6032941914
  - # 3
    frequency:     1.6032941914
  - # 4
    frequency:     4.2560198910
  - # 5
    frequency:     4.2560198910
  - # 6
    frequency:     4.2560198910
  - # 7
    frequency:     4.2560198910
  - # 8
    frequency:     4.2560198910
  - # 9
    frequency:     4.2560198910
  - # 10
    frequency:     9.1227219498
  - # 11
    frequency:     9.1227219498
  - # 12
    frequency:     9.1227219498

- q-position: [    0.1562500,    0.0937500,    0.0937500 ]
  distance_from_gamma:  0.049725784
  weight: 24   
  band:
  - # 1
    frequency:     1.7832001692
  - # 2
    frequency:     1.7832001692
  - # 3
    frequency:     2.3941505275
  - # 4
    frequency:     4.1838325413
  - # 5
    frequency:     4.1838325413
  - # 6
    frequency:     4.2560198910
  - # 7
    frequency:     4.2560198910
  - # 8
    frequency:     4.5459717572
  - # 9
    frequency:     4.5459717572
  - # 10
    frequency:     8.9477735381
  - # 11
    frequency:     8.9817538303
  - # 12
    frequency:     8.9817538303

- q-position: [    0.2187500,    0.0937500,    0.0937500 ]
  distance_from_gamma:  0.062070438
  weight: 24   
  band:
  - # 1
    frequency:     2.0160103156
  - # 2
    frequency:     2.0160103156
  - # 3
    frequency:     3.2127254295
  - # 4
    frequency:     4.0767585144
  - # 5
    frequency:     4.0767585144
  - # 6
    frequency:     4.2560198910
  - # 7
    frequency:     4.2560198910
  - # 8
    frequency:     4.9367005587
  - # 9
    frequency:     4.9367005587
  - # 10
    frequency:     8.6875199771
  - # 11
    frequency:     8.7730695130
  - # 12
    frequency:     8.7730695130

- q-position: [    0.2812500,    0.0937500,    0.0937500 ]
  distance_from_gamma:  0.075451001
  weight: 24   
  band:
  - # 1
    frequency:     2.2781672181
  - # 2
    frequency:     2.2781672181
  - # 3
    frequency:     3.9362687540
  - # 4
    frequency:     3.9362687540
  - # 5
    frequency:     4.0203381051
  - # 6
    frequency:     4.2560198910
  - # 7
    frequency:     4.2560198910
  - # 8
    frequency:     5.3932159162
  - # 9
    frequency:     5.3932159162
  - # 10
    frequency:     8.3445484933
  - # 11
    frequency:     8.5000578332
  - # 12
    frequency:     8.5000578332

- q-position: [    0.3437500,    0.0937500,    0.0937500 ]
  distance_from_gamma:  0.089403559
  weight: 24   
  band:
  - # 1
    frequency:     2.5522119449
  - # 2
    frequency:     2.5522119449
  - # 3
    frequency:     3.7643687074
  - # 4
    frequency:     3.7643687074
  - # 5
    frequency:     4.2560198910
  - # 6
    frequency:     4.2560198910
  - # 7
    frequency:     4.7991678478
  - # 8
    frequency:     5.8848901037
  - # 9
    frequency:     5.8848901037
  - # 10
    frequency:     7.9222847718
  - # 11
    frequency:     8.1673636844
  - # 12
    frequency:     8.1673636844

- q-position: [    0.4062500,    0.0937500,    0.0937500 ]
  distance_from_gamma:  0.103697482
  weight: 24   
  band:
  - # 1
    frequency:     2.8257117375
  - # 2
    frequency:     2.8257117375
  - # 3
    frequency:     3.5636513232
  - # 4
    frequency:     3.5636513232
  - # 5
    frequency:     4.2560198910
  - # 6
    frequency:     4.2560198910
  - # 7
    frequency:     5.5375371433
  - # 8
    frequency:     6.3869692423
  - # 9
    frequency:     6.3869692423
  - # 10
    frequency:     7.4249774696
  - # 11
    frequency:     7.7810272447
  - # 12
    frequency:     7.7810272447

- q-position: [    0.4687500,    0.0937500,    0.0937500 ]
  distance_from_gamma:  0.118209000
  weight: 24   
  band:
  - # 1
    frequency:     3.0896770940
  - # 2
    frequency:     3.0896770940
  - # 3
    frequency:     3.3373871564
  - # 4
    frequency:     3.3373871564
  - # 5
    frequency:     4.2560198910
  - # 6
    frequency:     4.2560198910
  - # 7
    frequency:     6.2262934401
  - # 8
    frequency:     6.8576875136
  - # 9
    frequency:     6.8799949688
  - # 10
    frequency:     6.8799949688
  - # 11
    frequency:     7.3487026281
  - # 12
    frequency:     7.3487026281

- q-position: [    0.1562500,    0.1562500,    0.0937500 ]
  distance_from_gamma:  0.058246980
  weight: 24   
  band:
  - # 1
    frequency:     1.9660137603
  - # 2
    frequency:     2.4934491403
  - # 3
    frequency:     2.4934491403
  - # 4
    frequency:     4.1986156583
  - # 5
    frequency:     4.1986156583
  - # 6
    frequency:     4.4699498829
  - # 7
    frequency:     4.4699498829
  - # 8
    frequency:     4.5323217566
  - # 9
    frequency:     4.5323217566
  - # 10
    frequency:     8.8110394447
  - # 11
    frequency:     8.8110394447
  - # 12
    frequency:     8.8428448277

- q-position: [    0.2187500,    0.1562500,    0.0937500 ]
  distance_from_gamma:  0.069085428
  weight: 48   
  band:
  - # 1
    frequency:     2.2046013747
  - # 2
    frequency:     2.6309468405
  - # 3
    frequency:     3.2599132605
  - # 4
    frequency:     4.1138523045
  - # 5
    frequency:     4.2199852526
  - # 6
    frequency:     4.3572232947
  - # 7
    frequency:     4.5124315417
  - # 8
    frequency:     4.8554137596
  - # 9
    frequency:     4.9058324072
  - # 10
    frequency:     8.5571414763
  - # 11
    frequency:     8.6086680151
  - # 12
    frequency:     8.6372052091

- q-position: [    0.2812500,    0.1562500,    0.0937500 ]
  distance_from_gamma:  0.081319805
  weight: 48   
  band:
  - # 1
    frequency:     2.4752241724
  - # 2
    frequency:     2.7961862660
  - # 3
    frequency:     4.0033741303
  - # 4
    frequency:     4.0298357703
  - # 5
    frequency:     4.2093856271
  - # 6
    frequency:     4.2470280735
  - # 7
    frequency:     4.4869885775
  - # 8
    frequency:     5.3056657536
  - # 9
    frequency:     5.3435929107
  - # 10
    frequency:     8.2226594467
  - # 11
    frequency:     8.3440021217
  - # 12
    frequency:     8.3681699022

- q-position: [    0.3437500,    0.1562500,    0.0937500 ]
  distance_from_gamma:  0.094408969
  weight: 48   
  band:
  - # 1
    frequency:     2.7596997875
  - # 2
    frequency:     2.9787841602
  - # 3
    frequency:     3.8694323858
  - # 4
    frequency:     4.0286125582
  - # 5
    frequency:     4.2786084135
  - # 6
    frequency:     4.4568850103
  - # 7
    frequency:     4.7790404254
  - # 8
    frequency:     5.7904899989
  - # 9
    frequency:     5.8163473340
  - # 10
    frequency:     7.8110484139
  - # 11
    frequency:     8.0216245420
  - # 12
    frequency:     8.0403098308

- q-position: [    0.4062500,    0.1562500,    0.0937500 ]
  distance_from_gamma:  0.108042699
  weight: 48   
  band:
  - # 1
    frequency:     3.0447762521
  - # 2
    frequency:     3.1693611105
  - # 3
    frequency:     3.7149444428
  - # 4
    frequency:     3.8177217861
  - # 5
    frequency:     4.3134274299
  - # 6
    frequency:     4.4231954240
  - # 7
    frequency:     5.4929378964
  - # 8
    frequency:     6.2854880877
  - # 9
    frequency:     6.3001725884
  - # 10
    frequency:     7.3266184545
  - # 11
    frequency:     7.6474951427
  - # 12
    frequency:     7.6595689240

- q-position: [    0.4687500,    0.1562500,    0.0937500 ]
  distance_from_gamma:  0.122038620