phonopy:
  version: "2.48.0"
  calculator: aims
  frequency_unit_conversion_factor: 15.633302
  symmetry_tolerance: 1.00000e-05
  configuration:
    tprop: ".TRUE."
    tmin: "0"
    tmax: "1000"
    tstep: "10"
    mesh: "16 16 16"

physical_unit:
  atomic_mass: "AMU"
  length: "angstrom"
  force: "eV/angstrom"
  force_constants: "eV/angstrom^2"

space_group:
  type: "Fm-3m"
  number: 225
  Hall_symbol: "-F 4 2 3"

supercell_matrix:
- [   1,   0,   0 ]
- [   0,   1,   0 ]
- [   0,   0,   1 ]

primitive_cell:
  lattice:
  - [     4.121000000000000,     0.000000000000000,     0.000000000000000 ] # a
  - [     0.000000000000000,     4.121000000000000,     0.000000000000000 ] # b
  - [     0.000000000000000,     0.000000000000000,     4.121000000000000 ] # c
  points:
  - symbol: Al # 1
    coordinates: [  0.000000000000000,  0.000000000000000,  0.000000000000000 ]
    mass: 26.981539
  - symbol: Al # 2
    coordinates: [  0.000000000000000,  0.500000000000000,  0.500000000000000 ]
    mass: 26.981539
  - symbol: Al # 3
    coordinates: [  0.500000000000000,  0.000000000000000,  0.500000000000000 ]
    mass: 26.981539
  - symbol: Al # 4
    coordinates: [  0.500000000000000,  0.500000000000000,  0.000000000000000 ]
    mass: 26.981539
  reciprocal_lattice: # without 2pi
  - [     0.242659548653239,     0.000000000000000,     0.000000000000000 ] # a*
  - [     0.000000000000000,     0.242659548653239,     0.000000000000000 ] # b*
  - [     0.000000000000000,     0.000000000000000,     0.242659548653239 ] # c*

unit_cell:
  lattice:
  - [     4.121000000000000,     0.000000000000000,     0.000000000000000 ] # a
  - [     0.000000000000000,     4.121000000000000,     0.000000000000000 ] # b
  - [     0.000000000000000,     0.000000000000000,     4.121000000000000 ] # c
  points:
  - symbol: Al # 1
    coordinates: [  0.000000000000000,  0.000000000000000,  0.000000000000000 ]
    mass: 26.981539
    reduced_to: 1
  - symbol: Al # 2
    coordinates: [  0.000000000000000,  0.500000000000000,  0.500000000000000 ]
    mass: 26.981539
    reduced_to: 2
  - symbol: Al # 3
    coordinates: [  0.500000000000000,  0.000000000000000,  0.500000000000000 ]
    mass: 26.981539
    reduced_to: 3
  - symbol: Al # 4
    coordinates: [  0.500000000000000,  0.500000000000000,  0.000000000000000 ]
    mass: 26.981539
    reduced_to: 4

supercell:
  lattice:
  - [     4.121000000000000,     0.000000000000000,     0.000000000000000 ] # a
  - [     0.000000000000000,     4.121000000000000,     0.000000000000000 ] # b
  - [     0.000000000000000,     0.000000000000000,     4.121000000000000 ] # c
  points:
  - symbol: Al # 1
    coordinates: [  0.000000000000000,  0.000000000000000,  0.000000000000000 ]
    mass: 26.981539
    reduced_to: 1
  - symbol: Al # 2
    coordinates: [  0.000000000000000,  0.500000000000000,  0.500000000000000 ]
    mass: 26.981539
    reduced_to: 2
  - symbol: Al # 3
    coordinates: [  0.500000000000000,  0.000000000000000,  0.500000000000000 ]
    mass: 26.981539
    reduced_to: 3
  - symbol: Al # 4
    coordinates: [  0.500000000000000,  0.500000000000000,  0.000000000000000 ]
    mass: 26.981539
    reduced_to: 4
